TACC:  Starting up job 3814513 
TACC:  Starting parallel tasks... 

     Program PHONON v.6.7MaX starts on 23Nov2021 at 18:11:53 

     This program is part of the open-source Quantum ESPRESSO suite
     for quantum simulation of materials; please cite
         "P. Giannozzi et al., J. Phys.:Condens. Matter 21 395502 (2009);
         "P. Giannozzi et al., J. Phys.:Condens. Matter 29 465901 (2017);
          URL http://www.quantum-espresso.org", 
     in publications or presentations arising from this work. More details at
     http://www.quantum-espresso.org/quote

     Parallel version (MPI), running on   224 processors

     MPI processes distributed on     4 nodes
     K-points division:     npool     =       8
     R & G space division:  proc/nbgrp/npool/nimage =      28
     Waiting for input...
     Reading input from standard input
      Title line not specified: using 'default'.

     Reading xml data from directory:

     ./inse.save/
     Message from routine read_pp_mesh:
     mesh size missing, using the one in header
     Message from routine read_pp_mesh:
     mesh size missing, using the one in header

     IMPORTANT: XC functional enforced from input :
     Exchange-correlation= PBE
                           (   1   4   3   4   0   0   0)
     Any further DFT definition will be discarded
     Please, verify this is what you really want

 
     Parallelization info
     --------------------
     sticks:   dense  smooth     PW     G-vecs:    dense   smooth      PW
     Min          41      41     12                 6735     6735    1102
     Max          42      42     13                 6752     6752    1125
     Sum        1159    1159    349               188879   188879   31191
 
     Reading collected, re-writing distributed wavefunctions

     Calculation of q =    0.0000000   0.0200000   0.0100000

     Subspace diagonalization in iterative solution of the eigenvalue problem:
     a serial algorithm will be used

 
     Parallelization info
     --------------------
     sticks:   dense  smooth     PW     G-vecs:    dense   smooth      PW
     Min          41      41     11                 6735     6735    1003
     Max          42      42     12                 6752     6752    1038
     Sum        1159    1159    313               188879   188879   28439
 

     Title: 
     default                                                                    


     bravais-lattice index     =            4
     lattice parameter (alat)  =       7.7271  a.u.
     unit-cell volume          =    2383.8404 (a.u.)^3
     number of atoms/cell      =            4
     number of atomic types    =            2
     number of electrons       =        38.00
     number of Kohn-Sham states=           19
     kinetic-energy cutoff     =      70.0000  Ry
     charge density cutoff     =     280.0000  Ry
     Exchange-correlation= PBE
                           (   1   4   3   4   0   0   0)

     celldm(1)=   7.727128  celldm(2)=   0.000000  celldm(3)=   5.966124
     celldm(4)=   0.000000  celldm(5)=   0.000000  celldm(6)=   0.000000

     crystal axes: (cart. coord. in units of alat)
               a(1) = (   1.000000   0.000000   0.000000 )  
               a(2) = (  -0.500000   0.866025   0.000000 )  
               a(3) = (   0.000000   0.000000   5.966124 )  

     reciprocal axes: (cart. coord. in units 2 pi/alat)
               b(1) = (  1.000000  0.577350  0.000000 )  
               b(2) = (  0.000000  1.154701  0.000000 )  
               b(3) = (  0.000000  0.000000  0.167613 )  


     PseudoPot. # 1 for In read from file:
     ./In_ONCV_PBE-1.2.upf
     MD5 check sum: 2123f823f6143602c63cd302e3a0bdd6
     Pseudo is Norm-conserving, Zval = 13.0
     Generated using ONCVPSP code by D. R. Hamann
     Using radial grid of  602 points,  6 beta functions with: 
                l(1) =   0
                l(2) =   0
                l(3) =   1
                l(4) =   1
                l(5) =   2
                l(6) =   2

     PseudoPot. # 2 for Se read from file:
     ./Se_ONCV_PBE-1.2.upf
     MD5 check sum: e78e48a4f5d8ce1f8dc76ec1271f249c
     Pseudo is Norm-conserving, Zval =  6.0
     Generated using ONCVPSP code by D. R. Hamann
     Using radial grid of  602 points,  6 beta functions with: 
                l(1) =   0
                l(2) =   0
                l(3) =   1
                l(4) =   1
                l(5) =   2
                l(6) =   2

     atomic species   valence    mass     pseudopotential
        In            13.00   114.81800     In( 1.00)
        Se             6.00    78.96000     Se( 1.00)

     No symmetry found



   Cartesian axes

     site n.     atom                  positions (alat units)
         1           In  tau(   1) = (  -0.0000000   0.5773503   1.0573362  )
         2           In  tau(   2) = (  -0.0000000   0.5773503   1.7491693  )
         3           Se  tau(   3) = (   0.5000000   0.2886751   0.7452705  )
         4           Se  tau(   4) = (   0.5000000   0.2886751   2.0612351  )

     number of k points=   288

     Number of k-points >= 100: set verbosity='high' to print them.

     Dense  grid:   188879 G-vectors     FFT dimensions: (  45,  45, 250)

     Estimated max dynamical RAM per process >       8.52 MB

     Estimated total dynamical RAM >       1.86 GB

     The potential is recalculated from file :
     ./_ph0/inse.save/charge-density

     Starting wfcs are    0 atomic +   19 random wfcs

     Band Structure Calculation
     Davidson diagonalization with overlap

     ethr =  2.63E-11,  avg # of iterations = 21.9

     total cpu time spent up to now is       11.1 secs

     End of band structure calculation

     Number of k-points >= 100: set verbosity='high' to print the bands.

     highest occupied level (ev):    -1.9267

     Writing output data file ./_ph0/inse.save/

     default                                                                    

     bravais-lattice index     =            4
     lattice parameter (alat)  =       7.7271  a.u.
     unit-cell volume          =    2383.8404 (a.u.)^3
     number of atoms/cell      =            4
     number of atomic types    =            2
     kinetic-energy cut-off    =      70.0000  Ry
     charge density cut-off    =     280.0000  Ry
     convergence threshold     =      1.0E-21
     beta                      =       0.7000
     number of iterations used =            4
     Exchange-correlation= PBE
                           (   1   4   3   4   0   0   0)


     celldm(1)=    7.72713  celldm(2)=    0.00000  celldm(3)=    5.96612
     celldm(4)=    0.00000  celldm(5)=    0.00000  celldm(6)=    0.00000

     crystal axes: (cart. coord. in units of alat)
               a(1) = (  1.0000  0.0000  0.0000 )  
               a(2) = ( -0.5000  0.8660  0.0000 )  
               a(3) = (  0.0000  0.0000  5.9661 )  

     reciprocal axes: (cart. coord. in units 2 pi/alat)
               b(1) = (  1.0000  0.5774  0.0000 )  
               b(2) = (  0.0000  1.1547  0.0000 )  
               b(3) = (  0.0000  0.0000  0.1676 )  


     Atoms inside the unit cell: 

     Cartesian axes

     site n.  atom      mass           positions (alat units)
        1     In 114.8180   tau(    1) = (   -0.00000    0.57735    1.05734  )
        2     In 114.8180   tau(    2) = (   -0.00000    0.57735    1.74917  )
        3     Se  78.9600   tau(    3) = (    0.50000    0.28868    0.74527  )
        4     Se  78.9600   tau(    4) = (    0.50000    0.28868    2.06124  )

     Computing dynamical matrix for 
                    q = (   0.0000000   0.0200000   0.0100000 )
 
     No symmetry!

     G cutoff =  423.4815  (   6752 G-vectors)     FFT grid: ( 45, 45,250)
     number of k points=   288

     PseudoPot. # 1 for In read from file:
     ./In_ONCV_PBE-1.2.upf
     MD5 check sum: 2123f823f6143602c63cd302e3a0bdd6
     Pseudo is Norm-conserving, Zval = 13.0
     Generated using ONCVPSP code by D. R. Hamann
     Using radial grid of  602 points,  6 beta functions with: 
                l(1) =   0
                l(2) =   0
                l(3) =   1
                l(4) =   1
                l(5) =   2
                l(6) =   2

     PseudoPot. # 2 for Se read from file:
     ./Se_ONCV_PBE-1.2.upf
     MD5 check sum: e78e48a4f5d8ce1f8dc76ec1271f249c
     Pseudo is Norm-conserving, Zval =  6.0
     Generated using ONCVPSP code by D. R. Hamann
     Using radial grid of  602 points,  6 beta functions with: 
                l(1) =   0
                l(2) =   0
                l(3) =   1
                l(4) =   1
                l(5) =   2
                l(6) =   2

     Mode symmetry, C_1 (1)     point group:


     Atomic displacements:
     There are   12 irreducible representations

     Representation     1      1 modes -  To be done

     Representation     2      1 modes -  To be done

     Representation     3      1 modes -  To be done

     Representation     4      1 modes -  To be done

     Representation     5      1 modes -  To be done

     Representation     6      1 modes -  To be done

     Representation     7      1 modes -  To be done

     Representation     8      1 modes -  To be done

     Representation     9      1 modes -  To be done

     Representation    10      1 modes -  To be done

     Representation    11      1 modes -  To be done

     Representation    12      1 modes -  To be done



     Alpha used in Ewald sum =   2.6000
     PHONON       :     12.56s CPU     14.93s WALL



     Representation #   1 mode #   1

     Self-consistent Calculation

      iter #   1 total cpu time :    18.3 secs   av.it.:   8.0
      thresh= 1.000E-02 alpha_mix =  0.700 |ddv_scf|^2 =  4.413E-07

      iter #   2 total cpu time :    33.5 secs   av.it.:  15.5
      thresh= 6.643E-05 alpha_mix =  0.700 |ddv_scf|^2 =  2.112E-07

      iter #   3 total cpu time :    45.6 secs   av.it.:  14.9
      thresh= 4.596E-05 alpha_mix =  0.700 |ddv_scf|^2 =  2.180E-10

      iter #   4 total cpu time :    49.5 secs   av.it.:  14.9
      thresh= 1.477E-06 alpha_mix =  0.700 |ddv_scf|^2 =  4.555E-11

      iter #   5 total cpu time :    52.9 secs   av.it.:  14.5
      thresh= 6.749E-07 alpha_mix =  0.700 |ddv_scf|^2 =  1.103E-10

      iter #   6 total cpu time :    55.6 secs   av.it.:  10.1
      thresh= 1.050E-06 alpha_mix =  0.700 |ddv_scf|^2 =  1.003E-11

      iter #   7 total cpu time :    58.8 secs   av.it.:  12.9
      thresh= 3.168E-07 alpha_mix =  0.700 |ddv_scf|^2 =  2.928E-13

      iter #   8 total cpu time :    62.4 secs   av.it.:  14.0
      thresh= 5.411E-08 alpha_mix =  0.700 |ddv_scf|^2 =  2.631E-13

      iter #   9 total cpu time :    65.5 secs   av.it.:  12.1
      thresh= 5.129E-08 alpha_mix =  0.700 |ddv_scf|^2 =  4.135E-14

      iter #  10 total cpu time :    68.6 secs   av.it.:  13.0
      thresh= 2.033E-08 alpha_mix =  0.700 |ddv_scf|^2 =  1.898E-14

      iter #  11 total cpu time :    71.6 secs   av.it.:  12.0
      thresh= 1.378E-08 alpha_mix =  0.700 |ddv_scf|^2 =  4.164E-16

      iter #  12 total cpu time :    75.0 secs   av.it.:  14.3
      thresh= 2.041E-09 alpha_mix =  0.700 |ddv_scf|^2 =  1.785E-15

      iter #  13 total cpu time :    77.9 secs   av.it.:  12.0
      thresh= 4.225E-09 alpha_mix =  0.700 |ddv_scf|^2 =  2.742E-16

      iter #  14 total cpu time :    81.1 secs   av.it.:  13.0
      thresh= 1.656E-09 alpha_mix =  0.700 |ddv_scf|^2 =  1.433E-17

      iter #  15 total cpu time :    84.5 secs   av.it.:  13.1
      thresh= 3.785E-10 alpha_mix =  0.700 |ddv_scf|^2 =  9.236E-18

      iter #  16 total cpu time :    87.7 secs   av.it.:  13.0
      thresh= 3.039E-10 alpha_mix =  0.700 |ddv_scf|^2 =  4.174E-18

      iter #  17 total cpu time :    90.6 secs   av.it.:  11.9
      thresh= 2.043E-10 alpha_mix =  0.700 |ddv_scf|^2 =  1.952E-18

      iter #  18 total cpu time :    93.5 secs   av.it.:  12.0
      thresh= 1.397E-10 alpha_mix =  0.700 |ddv_scf|^2 =  2.596E-19

      iter #  19 total cpu time :    96.7 secs   av.it.:  13.0
      thresh= 5.095E-11 alpha_mix =  0.700 |ddv_scf|^2 =  1.137E-19

      iter #  20 total cpu time :    99.5 secs   av.it.:  11.0
      thresh= 3.372E-11 alpha_mix =  0.700 |ddv_scf|^2 =  2.389E-20

      iter #  21 total cpu time :   102.7 secs   av.it.:  12.2
      thresh= 1.546E-11 alpha_mix =  0.700 |ddv_scf|^2 =  6.623E-21

      iter #  22 total cpu time :   105.7 secs   av.it.:  12.2
      thresh= 8.138E-12 alpha_mix =  0.700 |ddv_scf|^2 =  1.095E-21

      iter #  23 total cpu time :   108.9 secs   av.it.:  12.0
      thresh= 3.310E-12 alpha_mix =  0.700 |ddv_scf|^2 =  7.675E-22

     End of self-consistent calculation

     Convergence has been achieved 


     Representation #   2 mode #   2

     Self-consistent Calculation

      iter #   1 total cpu time :   111.3 secs   av.it.:   8.0
      thresh= 1.000E-02 alpha_mix =  0.700 |ddv_scf|^2 =  3.936E-04

      iter #   2 total cpu time :   114.1 secs   av.it.:  11.0
      thresh= 1.984E-03 alpha_mix =  0.700 |ddv_scf|^2 =  2.451E-03

      iter #   3 total cpu time :   116.3 secs   av.it.:   8.9
      thresh= 4.951E-03 alpha_mix =  0.700 |ddv_scf|^2 =  1.769E-04

      iter #   4 total cpu time :   118.8 secs   av.it.:   9.0
      thresh= 1.330E-03 alpha_mix =  0.700 |ddv_scf|^2 =  3.786E-06

      iter #   5 total cpu time :   121.6 secs   av.it.:  11.1
      thresh= 1.946E-04 alpha_mix =  0.700 |ddv_scf|^2 =  1.416E-07

      iter #   6 total cpu time :   124.6 secs   av.it.:  12.0
      thresh= 3.763E-05 alpha_mix =  0.700 |ddv_scf|^2 =  1.451E-07

      iter #   7 total cpu time :   127.9 secs   av.it.:  11.0
      thresh= 3.809E-05 alpha_mix =  0.700 |ddv_scf|^2 =  2.643E-10

      iter #   8 total cpu time :   130.8 secs   av.it.:  12.0
      thresh= 1.626E-06 alpha_mix =  0.700 |ddv_scf|^2 =  1.426E-10

      iter #   9 total cpu time :   133.5 secs   av.it.:  11.0
      thresh= 1.194E-06 alpha_mix =  0.700 |ddv_scf|^2 =  5.424E-10

      iter #  10 total cpu time :   136.2 secs   av.it.:  10.6
      thresh= 2.329E-06 alpha_mix =  0.700 |ddv_scf|^2 =  4.100E-11

      iter #  11 total cpu time :   139.1 secs   av.it.:  11.1
      thresh= 6.403E-07 alpha_mix =  0.700 |ddv_scf|^2 =  1.329E-11

      iter #  12 total cpu time :   142.3 secs   av.it.:  13.0
      thresh= 3.646E-07 alpha_mix =  0.700 |ddv_scf|^2 =  8.802E-11

      iter #  13 total cpu time :   145.1 secs   av.it.:  11.0
      thresh= 9.382E-07 alpha_mix =  0.700 |ddv_scf|^2 =  3.709E-12

      iter #  14 total cpu time :   147.9 secs   av.it.:  10.8
      thresh= 1.926E-07 alpha_mix =  0.700 |ddv_scf|^2 =  1.190E-14

      iter #  15 total cpu time :   151.2 secs   av.it.:  13.3
      thresh= 1.091E-08 alpha_mix =  0.700 |ddv_scf|^2 =  9.990E-14

      iter #  16 total cpu time :   154.0 secs   av.it.:  11.0
      thresh= 3.161E-08 alpha_mix =  0.700 |ddv_scf|^2 =  2.504E-14

      iter #  17 total cpu time :   156.8 secs   av.it.:  11.0
      thresh= 1.582E-08 alpha_mix =  0.700 |ddv_scf|^2 =  3.299E-15

      iter #  18 total cpu time :   159.6 secs   av.it.:  11.0
      thresh= 5.744E-09 alpha_mix =  0.700 |ddv_scf|^2 =  2.478E-16

      iter #  19 total cpu time :   162.8 secs   av.it.:  13.0
      thresh= 1.574E-09 alpha_mix =  0.700 |ddv_scf|^2 =  2.583E-15

      iter #  20 total cpu time :   165.5 secs   av.it.:  11.0
      thresh= 5.082E-09 alpha_mix =  0.700 |ddv_scf|^2 =  1.965E-16

      iter #  21 total cpu time :   168.4 secs   av.it.:  10.9
      thresh= 1.402E-09 alpha_mix =  0.700 |ddv_scf|^2 =  2.364E-17

      iter #  22 total cpu time :   171.5 secs   av.it.:  12.0
      thresh= 4.862E-10 alpha_mix =  0.700 |ddv_scf|^2 =  8.766E-17

      iter #  23 total cpu time :   174.5 secs   av.it.:  10.7
      thresh= 9.363E-10 alpha_mix =  0.700 |ddv_scf|^2 =  2.610E-17

      iter #  24 total cpu time :   177.0 secs   av.it.:  10.0
      thresh= 5.109E-10 alpha_mix =  0.700 |ddv_scf|^2 =  7.837E-18

      iter #  25 total cpu time :   179.5 secs   av.it.:  10.0
      thresh= 2.799E-10 alpha_mix =  0.700 |ddv_scf|^2 =  1.974E-18

      iter #  26 total cpu time :   182.3 secs   av.it.:  11.0
      thresh= 1.405E-10 alpha_mix =  0.700 |ddv_scf|^2 =  1.502E-18

      iter #  27 total cpu time :   184.9 secs   av.it.:  10.2
      thresh= 1.226E-10 alpha_mix =  0.700 |ddv_scf|^2 =  5.828E-20

      iter #  28 total cpu time :   187.7 secs   av.it.:  10.9
      thresh= 2.414E-11 alpha_mix =  0.700 |ddv_scf|^2 =  1.193E-20

      iter #  29 total cpu time :   190.7 secs   av.it.:  11.0
      thresh= 1.092E-11 alpha_mix =  0.700 |ddv_scf|^2 =  7.802E-21

      iter #  30 total cpu time :   193.6 secs   av.it.:  11.0
      thresh= 8.833E-12 alpha_mix =  0.700 |ddv_scf|^2 =  1.872E-21

      iter #  31 total cpu time :   196.5 secs   av.it.:  11.0
      thresh= 4.326E-12 alpha_mix =  0.700 |ddv_scf|^2 =  4.210E-22

     End of self-consistent calculation

     Convergence has been achieved 


     Representation #   3 mode #   3

     Self-consistent Calculation

      iter #   1 total cpu time :   199.0 secs   av.it.:   9.0
      thresh= 1.000E-02 alpha_mix =  0.700 |ddv_scf|^2 =  6.358E-04

      iter #   2 total cpu time :   203.7 secs   av.it.:  12.0
      thresh= 2.522E-03 alpha_mix =  0.700 |ddv_scf|^2 =  1.700E-02

      iter #   3 total cpu time :   206.0 secs   av.it.:   9.0
      thresh= 1.000E-02 alpha_mix =  0.700 |ddv_scf|^2 =  4.045E-05

      iter #   4 total cpu time :   208.9 secs   av.it.:  11.5
      thresh= 6.360E-04 alpha_mix =  0.700 |ddv_scf|^2 =  5.247E-06

      iter #   5 total cpu time :   211.7 secs   av.it.:  11.1
      thresh= 2.291E-04 alpha_mix =  0.700 |ddv_scf|^2 =  2.008E-06

      iter #   6 total cpu time :   214.4 secs   av.it.:  10.3
      thresh= 1.417E-04 alpha_mix =  0.700 |ddv_scf|^2 =  1.247E-07

      iter #   7 total cpu time :   217.4 secs   av.it.:  11.2
      thresh= 3.532E-05 alpha_mix =  0.700 |ddv_scf|^2 =  2.350E-09

      iter #   8 total cpu time :   220.0 secs   av.it.:  10.3
      thresh= 4.848E-06 alpha_mix =  0.700 |ddv_scf|^2 =  4.953E-10

      iter #   9 total cpu time :   223.3 secs   av.it.:  12.0
      thresh= 2.225E-06 alpha_mix =  0.700 |ddv_scf|^2 =  5.842E-10

      iter #  10 total cpu time :   226.0 secs   av.it.:  10.0
      thresh= 2.417E-06 alpha_mix =  0.700 |ddv_scf|^2 =  3.813E-11

      iter #  11 total cpu time :   228.9 secs   av.it.:  12.0
      thresh= 6.175E-07 alpha_mix =  0.700 |ddv_scf|^2 =  4.420E-12

      iter #  12 total cpu time :   232.0 secs   av.it.:  12.8
      thresh= 2.102E-07 alpha_mix =  0.700 |ddv_scf|^2 =  5.251E-12

      iter #  13 total cpu time :   234.9 secs   av.it.:  11.9
      thresh= 2.292E-07 alpha_mix =  0.700 |ddv_scf|^2 =  1.536E-12

      iter #  14 total cpu time :   237.9 secs   av.it.:  11.4
      thresh= 1.239E-07 alpha_mix =  0.700 |ddv_scf|^2 =  2.686E-13

      iter #  15 total cpu time :   240.6 secs   av.it.:  10.9
      thresh= 5.182E-08 alpha_mix =  0.700 |ddv_scf|^2 =  6.090E-14

      iter #  16 total cpu time :   243.7 secs   av.it.:  12.8
      thresh= 2.468E-08 alpha_mix =  0.700 |ddv_scf|^2 =  1.894E-13

      iter #  17 total cpu time :   246.4 secs   av.it.:  11.0
      thresh= 4.351E-08 alpha_mix =  0.700 |ddv_scf|^2 =  7.447E-15

      iter #  18 total cpu time :   248.8 secs   av.it.:  10.0
      thresh= 8.630E-09 alpha_mix =  0.700 |ddv_scf|^2 =  7.664E-16

      iter #  19 total cpu time :   251.7 secs   av.it.:  11.4
      thresh= 2.768E-09 alpha_mix =  0.700 |ddv_scf|^2 =  8.228E-17

      iter #  20 total cpu time :   254.4 secs   av.it.:  11.0
      thresh= 9.071E-10 alpha_mix =  0.700 |ddv_scf|^2 =  7.421E-17

      iter #  21 total cpu time :   257.3 secs   av.it.:  10.7
      thresh= 8.615E-10 alpha_mix =  0.700 |ddv_scf|^2 =  5.243E-18

      iter #  22 total cpu time :   260.1 secs   av.it.:  11.2
      thresh= 2.290E-10 alpha_mix =  0.700 |ddv_scf|^2 =  3.030E-19

      iter #  23 total cpu time :   263.2 secs   av.it.:  12.0
      thresh= 5.505E-11 alpha_mix =  0.700 |ddv_scf|^2 =  1.697E-19

      iter #  24 total cpu time :   266.2 secs   av.it.:  12.0
      thresh= 4.119E-11 alpha_mix =  0.700 |ddv_scf|^2 =  3.489E-20

      iter #  25 total cpu time :   268.9 secs   av.it.:  11.0
      thresh= 1.868E-11 alpha_mix =  0.700 |ddv_scf|^2 =  7.194E-21

      iter #  26 total cpu time :   271.8 secs   av.it.:  12.0
      thresh= 8.482E-12 alpha_mix =  0.700 |ddv_scf|^2 =  1.217E-20

      iter #  27 total cpu time :   274.6 secs   av.it.:  10.9
      thresh= 1.103E-11 alpha_mix =  0.700 |ddv_scf|^2 =  7.948E-22

     End of self-consistent calculation

     Convergence has been achieved 


     Representation #   4 mode #   4

     Self-consistent Calculation

      iter #   1 total cpu time :   278.7 secs   av.it.:   8.0
      thresh= 1.000E-02 alpha_mix =  0.700 |ddv_scf|^2 =  4.412E-07

      iter #   2 total cpu time :   282.6 secs   av.it.:  15.5
      thresh= 6.643E-05 alpha_mix =  0.700 |ddv_scf|^2 =  2.112E-07

      iter #   3 total cpu time :   298.2 secs   av.it.:  14.9
      thresh= 4.596E-05 alpha_mix =  0.700 |ddv_scf|^2 =  2.204E-10

      iter #   4 total cpu time :   301.7 secs   av.it.:  14.9
      thresh= 1.485E-06 alpha_mix =  0.700 |ddv_scf|^2 =  6.186E-11

      iter #   5 total cpu time :   305.0 secs   av.it.:  14.0
      thresh= 7.865E-07 alpha_mix =  0.700 |ddv_scf|^2 =  2.609E-10

      iter #   6 total cpu time :   307.9 secs   av.it.:  10.9
      thresh= 1.615E-06 alpha_mix =  0.700 |ddv_scf|^2 =  4.469E-12

      iter #   7 total cpu time :   311.2 secs   av.it.:  13.8
      thresh= 2.114E-07 alpha_mix =  0.700 |ddv_scf|^2 =  2.956E-13

      iter #   8 total cpu time :   314.5 secs   av.it.:  14.0
      thresh= 5.436E-08 alpha_mix =  0.700 |ddv_scf|^2 =  2.775E-13

      iter #   9 total cpu time :   317.5 secs   av.it.:  12.0
      thresh= 5.268E-08 alpha_mix =  0.700 |ddv_scf|^2 =  2.349E-14

      iter #  10 total cpu time :   320.7 secs   av.it.:  13.5
      thresh= 1.533E-08 alpha_mix =  0.700 |ddv_scf|^2 =  1.930E-14

      iter #  11 total cpu time :   323.7 secs   av.it.:  12.0
      thresh= 1.389E-08 alpha_mix =  0.700 |ddv_scf|^2 =  3.944E-16

      iter #  12 total cpu time :   327.2 secs   av.it.:  14.4
      thresh= 1.986E-09 alpha_mix =  0.700 |ddv_scf|^2 =  3.038E-15

      iter #  13 total cpu time :   330.0 secs   av.it.:  11.3
      thresh= 5.511E-09 alpha_mix =  0.700 |ddv_scf|^2 =  2.009E-16

      iter #  14 total cpu time :   333.2 secs   av.it.:  13.1
      thresh= 1.417E-09 alpha_mix =  0.700 |ddv_scf|^2 =  1.391E-17

      iter #  15 total cpu time :   336.4 secs   av.it.:  13.0
      thresh= 3.729E-10 alpha_mix =  0.700 |ddv_scf|^2 =  9.003E-18

      iter #  16 total cpu time :   339.8 secs   av.it.:  13.0
      thresh= 3.000E-10 alpha_mix =  0.700 |ddv_scf|^2 =  1.903E-18

      iter #  17 total cpu time :   356.3 secs   av.it.:  13.6
      thresh= 1.379E-10 alpha_mix =  0.700 |ddv_scf|^2 =  2.693E-18

      iter #  18 total cpu time :   360.6 secs   av.it.:  11.0
      thresh= 1.641E-10 alpha_mix =  0.700 |ddv_scf|^2 =  1.460E-19

      iter #  19 total cpu time :   364.2 secs   av.it.:  14.0
      thresh= 3.820E-11 alpha_mix =  0.700 |ddv_scf|^2 =  4.898E-19

      iter #  20 total cpu time :   366.8 secs   av.it.:  10.0
      thresh= 6.999E-11 alpha_mix =  0.700 |ddv_scf|^2 =  6.198E-20

      iter #  21 total cpu time :   370.1 secs   av.it.:  12.3
      thresh= 2.490E-11 alpha_mix =  0.700 |ddv_scf|^2 =  8.638E-21

      iter #  22 total cpu time :   373.2 secs   av.it.:  13.0
      thresh= 9.294E-12 alpha_mix =  0.700 |ddv_scf|^2 =  1.010E-20

      iter #  23 total cpu time :   376.4 secs   av.it.:  12.0
      thresh= 1.005E-11 alpha_mix =  0.700 |ddv_scf|^2 =  2.348E-21

      iter #  24 total cpu time :   380.1 secs   av.it.:  12.5
      thresh= 4.846E-12 alpha_mix =  0.700 |ddv_scf|^2 =  4.964E-23

     End of self-consistent calculation

     Convergence has been achieved 


     Representation #   5 mode #   5

     Self-consistent Calculation

      iter #   1 total cpu time :   382.5 secs   av.it.:   8.0
      thresh= 1.000E-02 alpha_mix =  0.700 |ddv_scf|^2 =  3.930E-04

      iter #   2 total cpu time :   385.3 secs   av.it.:  11.0
      thresh= 1.982E-03 alpha_mix =  0.700 |ddv_scf|^2 =  2.444E-03

      iter #   3 total cpu time :   387.6 secs   av.it.:   8.9
      thresh= 4.944E-03 alpha_mix =  0.700 |ddv_scf|^2 =  1.798E-04

      iter #   4 total cpu time :   390.0 secs   av.it.:   9.0
      thresh= 1.341E-03 alpha_mix =  0.700 |ddv_scf|^2 =  1.455E-06

      iter #   5 total cpu time :   393.0 secs   av.it.:  12.0
      thresh= 1.206E-04 alpha_mix =  0.700 |ddv_scf|^2 =  1.612E-07

      iter #   6 total cpu time :   395.9 secs   av.it.:  11.8
      thresh= 4.015E-05 alpha_mix =  0.700 |ddv_scf|^2 =  3.131E-08

      iter #   7 total cpu time :   399.1 secs   av.it.:  12.0
      thresh= 1.769E-05 alpha_mix =  0.700 |ddv_scf|^2 =  3.263E-09

      iter #   8 total cpu time :   401.6 secs   av.it.:  10.0
      thresh= 5.712E-06 alpha_mix =  0.700 |ddv_scf|^2 =  1.698E-10

      iter #   9 total cpu time :   404.5 secs   av.it.:  11.9
      thresh= 1.303E-06 alpha_mix =  0.700 |ddv_scf|^2 =  4.729E-10

      iter #  10 total cpu time :   407.1 secs   av.it.:  10.5
      thresh= 2.175E-06 alpha_mix =  0.700 |ddv_scf|^2 =  2.154E-11

      iter #  11 total cpu time :   410.0 secs   av.it.:  12.0
      thresh= 4.641E-07 alpha_mix =  0.700 |ddv_scf|^2 =  6.246E-13

      iter #  12 total cpu time :   413.0 secs   av.it.:  12.0
      thresh= 7.903E-08 alpha_mix =  0.700 |ddv_scf|^2 =  1.005E-12

      iter #  13 total cpu time :   416.1 secs   av.it.:  12.9
      thresh= 1.002E-07 alpha_mix =  0.700 |ddv_scf|^2 =  2.029E-12

      iter #  14 total cpu time :   418.8 secs   av.it.:  10.8
      thresh= 1.424E-07 alpha_mix =  0.700 |ddv_scf|^2 =  2.755E-14

      iter #  15 total cpu time :   421.5 secs   av.it.:  11.0
      thresh= 1.660E-08 alpha_mix =  0.700 |ddv_scf|^2 =  4.997E-16

      iter #  16 total cpu time :   424.6 secs   av.it.:  12.0
      thresh= 2.235E-09 alpha_mix =  0.700 |ddv_scf|^2 =  6.350E-17

      iter #  17 total cpu time :   427.9 secs   av.it.:  12.9
      thresh= 7.969E-10 alpha_mix =  0.700 |ddv_scf|^2 =  3.923E-17

      iter #  18 total cpu time :   430.8 secs   av.it.:  12.0
      thresh= 6.263E-10 alpha_mix =  0.700 |ddv_scf|^2 =  1.454E-17

      iter #  19 total cpu time :   433.9 secs   av.it.:  12.4
      thresh= 3.814E-10 alpha_mix =  0.700 |ddv_scf|^2 =  5.487E-17

      iter #  20 total cpu time :   436.4 secs   av.it.:  10.0
      thresh= 7.408E-10 alpha_mix =  0.700 |ddv_scf|^2 =  5.568E-18

      iter #  21 total cpu time :   439.3 secs   av.it.:  12.0
      thresh= 2.360E-10 alpha_mix =  0.700 |ddv_scf|^2 =  1.901E-18

      iter #  22 total cpu time :   442.2 secs   av.it.:  12.0
      thresh= 1.379E-10 alpha_mix =  0.700 |ddv_scf|^2 =  3.113E-18

      iter #  23 total cpu time :   445.0 secs   av.it.:  10.8
      thresh= 1.764E-10 alpha_mix =  0.700 |ddv_scf|^2 =  4.758E-19

      iter #  24 total cpu time :   447.7 secs   av.it.:  10.9
      thresh= 6.898E-11 alpha_mix =  0.700 |ddv_scf|^2 =  5.485E-21

      iter #  25 total cpu time :   451.0 secs   av.it.:  13.5
      thresh= 7.406E-12 alpha_mix =  0.700 |ddv_scf|^2 =  1.024E-19

      iter #  26 total cpu time :   453.5 secs   av.it.:  10.0
      thresh= 3.200E-11 alpha_mix =  0.700 |ddv_scf|^2 =  5.128E-20

      iter #  27 total cpu time :   456.2 secs   av.it.:  10.0
      thresh= 2.264E-11 alpha_mix =  0.700 |ddv_scf|^2 =  5.296E-21

      iter #  28 total cpu time :   458.8 secs   av.it.:  10.0
      thresh= 7.277E-12 alpha_mix =  0.700 |ddv_scf|^2 =  1.019E-21

      iter #  29 total cpu time :   461.6 secs   av.it.:  11.6
      thresh= 3.192E-12 alpha_mix =  0.700 |ddv_scf|^2 =  2.229E-22

     End of self-consistent calculation

     Convergence has been achieved 


     Representation #   6 mode #   6

     Self-consistent Calculation

      iter #   1 total cpu time :   464.1 secs   av.it.:   9.0
      thresh= 1.000E-02 alpha_mix =  0.700 |ddv_scf|^2 =  6.354E-04

      iter #   2 total cpu time :   467.1 secs   av.it.:  12.0
      thresh= 2.521E-03 alpha_mix =  0.700 |ddv_scf|^2 =  1.698E-02

      iter #   3 total cpu time :   469.5 secs   av.it.:   9.0
      thresh= 1.000E-02 alpha_mix =  0.700 |ddv_scf|^2 =  4.026E-05

      iter #   4 total cpu time :   472.3 secs   av.it.:  11.5
      thresh= 6.345E-04 alpha_mix =  0.700 |ddv_scf|^2 =  5.189E-06

      iter #   5 total cpu time :   475.4 secs   av.it.:  11.1
      thresh= 2.278E-04 alpha_mix =  0.700 |ddv_scf|^2 =  1.992E-06

      iter #   6 total cpu time :   478.3 secs   av.it.:  10.3
      thresh= 1.411E-04 alpha_mix =  0.700 |ddv_scf|^2 =  1.287E-07

      iter #   7 total cpu time :   481.1 secs   av.it.:  11.0
      thresh= 3.587E-05 alpha_mix =  0.700 |ddv_scf|^2 =  2.050E-10

      iter #   8 total cpu time :   484.0 secs   av.it.:  12.0
      thresh= 1.432E-06 alpha_mix =  0.700 |ddv_scf|^2 =  3.781E-09

      iter #   9 total cpu time :   486.6 secs   av.it.:  10.0
      thresh= 6.149E-06 alpha_mix =  0.700 |ddv_scf|^2 =  7.272E-12

      iter #  10 total cpu time :   490.0 secs   av.it.:  14.0
      thresh= 2.697E-07 alpha_mix =  0.700 |ddv_scf|^2 =  1.199E-11

      iter #  11 total cpu time :   493.0 secs   av.it.:  12.0
      thresh= 3.463E-07 alpha_mix =  0.700 |ddv_scf|^2 =  5.904E-12

      iter #  12 total cpu time :   496.1 secs   av.it.:  12.8
      thresh= 2.430E-07 alpha_mix =  0.700 |ddv_scf|^2 =  1.853E-11

      iter #  13 total cpu time :   499.0 secs   av.it.:  11.0
      thresh= 4.305E-07 alpha_mix =  0.700 |ddv_scf|^2 =  1.289E-12

      iter #  14 total cpu time :   503.5 secs   av.it.:  11.4
      thresh= 1.135E-07 alpha_mix =  0.700 |ddv_scf|^2 =  1.512E-12

      iter #  15 total cpu time :   506.1 secs   av.it.:  10.0
      thresh= 1.229E-07 alpha_mix =  0.700 |ddv_scf|^2 =  2.415E-13

      iter #  16 total cpu time :   508.7 secs   av.it.:   9.0
      thresh= 4.915E-08 alpha_mix =  0.700 |ddv_scf|^2 =  1.102E-13

      iter #  17 total cpu time :   511.3 secs   av.it.:  10.0
      thresh= 3.320E-08 alpha_mix =  0.700 |ddv_scf|^2 =  5.306E-15

      iter #  18 total cpu time :   514.0 secs   av.it.:  10.8
      thresh= 7.284E-09 alpha_mix =  0.700 |ddv_scf|^2 =  1.838E-15

      iter #  19 total cpu time :   516.9 secs   av.it.:  11.6
      thresh= 4.287E-09 alpha_mix =  0.700 |ddv_scf|^2 =  1.138E-15

      iter #  20 total cpu time :   519.6 secs   av.it.:  10.1
      thresh= 3.373E-09 alpha_mix =  0.700 |ddv_scf|^2 =  2.121E-16

      iter #  21 total cpu time :   522.5 secs   av.it.:  11.9
      thresh= 1.456E-09 alpha_mix =  0.700 |ddv_scf|^2 =  2.789E-16

      iter #  22 total cpu time :   525.3 secs   av.it.:  11.0
      thresh= 1.670E-09 alpha_mix =  0.700 |ddv_scf|^2 =  1.029E-17

      iter #  23 total cpu time :   528.2 secs   av.it.:  11.0
      thresh= 3.208E-10 alpha_mix =  0.700 |ddv_scf|^2 =  1.029E-17

      iter #  24 total cpu time :   530.8 secs   av.it.:  10.0
      thresh= 3.208E-10 alpha_mix =  0.700 |ddv_scf|^2 =  2.219E-19

      iter #  25 total cpu time :   533.6 secs   av.it.:  11.5
      thresh= 4.710E-11 alpha_mix =  0.700 |ddv_scf|^2 =  6.391E-20

      iter #  26 total cpu time :   536.7 secs   av.it.:  11.9
      thresh= 2.528E-11 alpha_mix =  0.700 |ddv_scf|^2 =  3.713E-20

      iter #  27 total cpu time :   539.7 secs   av.it.:  11.0
      thresh= 1.927E-11 alpha_mix =  0.700 |ddv_scf|^2 =  8.801E-21

      iter #  28 total cpu time :   542.6 secs   av.it.:  11.0
      thresh= 9.381E-12 alpha_mix =  0.700 |ddv_scf|^2 =  1.682E-21

      iter #  29 total cpu time :   545.6 secs   av.it.:  12.0
      thresh= 4.101E-12 alpha_mix =  0.700 |ddv_scf|^2 =  3.374E-21

      iter #  30 total cpu time :   548.2 secs   av.it.:  10.0
      thresh= 5.809E-12 alpha_mix =  0.700 |ddv_scf|^2 =  9.329E-22

     End of self-consistent calculation

     Convergence has been achieved 


     Representation #   7 mode #   7

     Self-consistent Calculation

      iter #   1 total cpu time :   550.0 secs   av.it.:   5.9
      thresh= 1.000E-02 alpha_mix =  0.700 |ddv_scf|^2 =  2.050E-08

      iter #   2 total cpu time :   553.6 secs   av.it.:  14.9
      thresh= 1.432E-05 alpha_mix =  0.700 |ddv_scf|^2 =  2.921E-09

      iter #   3 total cpu time :   557.1 secs   av.it.:  15.0
      thresh= 5.404E-06 alpha_mix =  0.700 |ddv_scf|^2 =  1.142E-10

      iter #   4 total cpu time :   560.8 secs   av.it.:  14.9
      thresh= 1.069E-06 alpha_mix =  0.700 |ddv_scf|^2 =  6.835E-12

      iter #   5 total cpu time :   564.3 secs   av.it.:  13.9
      thresh= 2.614E-07 alpha_mix =  0.700 |ddv_scf|^2 =  5.653E-11

      iter #   6 total cpu time :   566.9 secs   av.it.:   9.9
      thresh= 7.519E-07 alpha_mix =  0.700 |ddv_scf|^2 =  3.514E-13

      iter #   7 total cpu time :   570.5 secs   av.it.:  14.2
      thresh= 5.928E-08 alpha_mix =  0.700 |ddv_scf|^2 =  7.995E-14

      iter #   8 total cpu time :   573.9 secs   av.it.:  14.0
      thresh= 2.828E-08 alpha_mix =  0.700 |ddv_scf|^2 =  5.554E-15

      iter #   9 total cpu time :   576.8 secs   av.it.:  12.0
      thresh= 7.453E-09 alpha_mix =  0.700 |ddv_scf|^2 =  3.699E-15

      iter #  10 total cpu time :   579.8 secs   av.it.:  11.0
      thresh= 6.082E-09 alpha_mix =  0.700 |ddv_scf|^2 =  5.237E-16

      iter #  11 total cpu time :   582.8 secs   av.it.:  12.0
      thresh= 2.289E-09 alpha_mix =  0.700 |ddv_scf|^2 =  6.685E-17

      iter #  12 total cpu time :   585.7 secs   av.it.:  12.0
      thresh= 8.176E-10 alpha_mix =  0.700 |ddv_scf|^2 =  1.172E-16

      iter #  13 total cpu time :   588.6 secs   av.it.:  11.9
      thresh= 1.082E-09 alpha_mix =  0.700 |ddv_scf|^2 =  1.649E-17

      iter #  14 total cpu time :   591.6 secs   av.it.:  12.2
      thresh= 4.061E-10 alpha_mix =  0.700 |ddv_scf|^2 =  4.976E-19

      iter #  15 total cpu time :   595.0 secs   av.it.:  14.0
      thresh= 7.054E-11 alpha_mix =  0.700 |ddv_scf|^2 =  5.393E-19

      iter #  16 total cpu time :   598.2 secs   av.it.:  12.5
      thresh= 7.344E-11 alpha_mix =  0.700 |ddv_scf|^2 =  6.979E-20

      iter #  17 total cpu time :   601.4 secs   av.it.:  13.0
      thresh= 2.642E-11 alpha_mix =  0.700 |ddv_scf|^2 =  6.616E-20

      iter #  18 total cpu time :   604.3 secs   av.it.:  11.8
      thresh= 2.572E-11 alpha_mix =  0.700 |ddv_scf|^2 =  2.164E-20

      iter #  19 total cpu time :   606.9 secs   av.it.:  10.4
      thresh= 1.471E-11 alpha_mix =  0.700 |ddv_scf|^2 =  9.725E-21

      iter #  20 total cpu time :   609.6 secs   av.it.:  10.0
      thresh= 9.861E-12 alpha_mix =  0.700 |ddv_scf|^2 =  4.759E-23

     End of self-consistent calculation

     Convergence has been achieved 


     Representation #   8 mode #   8

     Self-consistent Calculation

      iter #   1 total cpu time :   611.5 secs   av.it.:   6.0
      thresh= 1.000E-02 alpha_mix =  0.700 |ddv_scf|^2 =  1.093E-04

      iter #   2 total cpu time :   614.0 secs   av.it.:   9.8
      thresh= 1.045E-03 alpha_mix =  0.700 |ddv_scf|^2 =  5.960E-04

      iter #   3 total cpu time :   616.3 secs   av.it.:   8.1
      thresh= 2.441E-03 alpha_mix =  0.700 |ddv_scf|^2 =  6.644E-05

      iter #   4 total cpu time :   618.6 secs   av.it.:   8.7
      thresh= 8.151E-04 alpha_mix =  0.700 |ddv_scf|^2 =  3.134E-07

      iter #   5 total cpu time :   621.3 secs   av.it.:  11.0
      thresh= 5.598E-05 alpha_mix =  0.700 |ddv_scf|^2 =  5.332E-08

      iter #   6 total cpu time :   624.2 secs   av.it.:  11.0
      thresh= 2.309E-05 alpha_mix =  0.700 |ddv_scf|^2 =  9.047E-10

      iter #   7 total cpu time :   627.3 secs   av.it.:  12.1
      thresh= 3.008E-06 alpha_mix =  0.700 |ddv_scf|^2 =  8.374E-10

      iter #   8 total cpu time :   629.9 secs   av.it.:   9.7
      thresh= 2.894E-06 alpha_mix =  0.700 |ddv_scf|^2 =  3.118E-10

      iter #   9 total cpu time :   632.6 secs   av.it.:  11.0
      thresh= 1.766E-06 alpha_mix =  0.700 |ddv_scf|^2 =  8.571E-11

      iter #  10 total cpu time :   635.0 secs   av.it.:   9.0
      thresh= 9.258E-07 alpha_mix =  0.700 |ddv_scf|^2 =  1.954E-11

      iter #  11 total cpu time :   637.9 secs   av.it.:  11.9
      thresh= 4.420E-07 alpha_mix =  0.700 |ddv_scf|^2 =  1.747E-11

      iter #  12 total cpu time :   640.4 secs   av.it.:  10.0
      thresh= 4.179E-07 alpha_mix =  0.700 |ddv_scf|^2 =  3.056E-13

      iter #  13 total cpu time :   643.4 secs   av.it.:  12.1
      thresh= 5.528E-08 alpha_mix =  0.700 |ddv_scf|^2 =  6.938E-13

      iter #  14 total cpu time :   646.2 secs   av.it.:  11.0
      thresh= 8.329E-08 alpha_mix =  0.700 |ddv_scf|^2 =  1.259E-14

      iter #  15 total cpu time :   648.8 secs   av.it.:  10.6
      thresh= 1.122E-08 alpha_mix =  0.700 |ddv_scf|^2 =  4.993E-16

      iter #  16 total cpu time :   651.8 secs   av.it.:  12.0
      thresh= 2.234E-09 alpha_mix =  0.700 |ddv_scf|^2 =  1.347E-15

      iter #  17 total cpu time :   654.5 secs   av.it.:  10.0
      thresh= 3.670E-09 alpha_mix =  0.700 |ddv_scf|^2 =  3.829E-17

      iter #  18 total cpu time :   657.2 secs   av.it.:  11.0
      thresh= 6.188E-10 alpha_mix =  0.700 |ddv_scf|^2 =  3.093E-18

      iter #  19 total cpu time :   660.3 secs   av.it.:  12.3
      thresh= 1.759E-10 alpha_mix =  0.700 |ddv_scf|^2 =  2.255E-18

      iter #  20 total cpu time :   663.2 secs   av.it.:  12.0
      thresh= 1.502E-10 alpha_mix =  0.700 |ddv_scf|^2 =  7.074E-19

      iter #  21 total cpu time :   666.5 secs   av.it.:  12.0
      thresh= 8.411E-11 alpha_mix =  0.700 |ddv_scf|^2 =  7.531E-20

      iter #  22 total cpu time :   669.3 secs   av.it.:  11.9
      thresh= 2.744E-11 alpha_mix =  0.700 |ddv_scf|^2 =  2.309E-19

      iter #  23 total cpu time :   671.9 secs   av.it.:  10.0
      thresh= 4.805E-11 alpha_mix =  0.700 |ddv_scf|^2 =  4.981E-20

      iter #  24 total cpu time :   674.4 secs   av.it.:   9.0
      thresh= 2.232E-11 alpha_mix =  0.700 |ddv_scf|^2 =  3.262E-20

      iter #  25 total cpu time :   676.9 secs   av.it.:  10.0
      thresh= 1.806E-11 alpha_mix =  0.700 |ddv_scf|^2 =  2.048E-21

      iter #  26 total cpu time :   679.9 secs   av.it.:  12.0
      thresh= 4.525E-12 alpha_mix =  0.700 |ddv_scf|^2 =  2.705E-21

      iter #  27 total cpu time :   682.7 secs   av.it.:  11.0
      thresh= 5.201E-12 alpha_mix =  0.700 |ddv_scf|^2 =  2.270E-21

      iter #  28 total cpu time :   685.2 secs   av.it.:  10.0
      thresh= 4.765E-12 alpha_mix =  0.700 |ddv_scf|^2 =  7.149E-23

     End of self-consistent calculation

     Convergence has been achieved 


     Representation #   9 mode #   9

     Self-consistent Calculation

      iter #   1 total cpu time :   687.3 secs   av.it.:   6.3
      thresh= 1.000E-02 alpha_mix =  0.700 |ddv_scf|^2 =  9.095E-05

      iter #   2 total cpu time :   690.6 secs   av.it.:  11.6
      thresh= 9.537E-04 alpha_mix =  0.700 |ddv_scf|^2 =  1.859E-03

      iter #   3 total cpu time :   692.9 secs   av.it.:   8.8
      thresh= 4.312E-03 alpha_mix =  0.700 |ddv_scf|^2 =  6.432E-06

      iter #   4 total cpu time :   695.6 secs   av.it.:  11.0
      thresh= 2.536E-04 alpha_mix =  0.700 |ddv_scf|^2 =  9.996E-08

      iter #   5 total cpu time :   698.7 secs   av.it.:  12.6
      thresh= 3.162E-05 alpha_mix =  0.700 |ddv_scf|^2 =  6.549E-07

      iter #   6 total cpu time :   701.4 secs   av.it.:  10.0
      thresh= 8.093E-05 alpha_mix =  0.700 |ddv_scf|^2 =  7.593E-08

      iter #   7 total cpu time :   704.0 secs   av.it.:   9.1
      thresh= 2.756E-05 alpha_mix =  0.700 |ddv_scf|^2 =  5.116E-10

      iter #   8 total cpu time :   707.1 secs   av.it.:  12.2
      thresh= 2.262E-06 alpha_mix =  0.700 |ddv_scf|^2 =  2.267E-09

      iter #   9 total cpu time :   709.7 secs   av.it.:  10.0
      thresh= 4.762E-06 alpha_mix =  0.700 |ddv_scf|^2 =  3.566E-10

      iter #  10 total cpu time :   712.7 secs   av.it.:  12.1
      thresh= 1.888E-06 alpha_mix =  0.700 |ddv_scf|^2 =  8.298E-10

      iter #  11 total cpu time :   715.5 secs   av.it.:  11.0
      thresh= 2.881E-06 alpha_mix =  0.700 |ddv_scf|^2 =  1.240E-10

      iter #  12 total cpu time :   718.0 secs   av.it.:  10.0
      thresh= 1.113E-06 alpha_mix =  0.700 |ddv_scf|^2 =  4.130E-11

      iter #  13 total cpu time :   720.8 secs   av.it.:  10.9
      thresh= 6.426E-07 alpha_mix =  0.700 |ddv_scf|^2 =  2.020E-11

      iter #  14 total cpu time :   723.3 secs   av.it.:  10.0
      thresh= 4.494E-07 alpha_mix =  0.700 |ddv_scf|^2 =  8.612E-12

      iter #  15 total cpu time :   726.1 secs   av.it.:  11.0
      thresh= 2.935E-07 alpha_mix =  0.700 |ddv_scf|^2 =  9.118E-13

      iter #  16 total cpu time :   729.0 secs   av.it.:  11.2
      thresh= 9.549E-08 alpha_mix =  0.700 |ddv_scf|^2 =  1.037E-12

      iter #  17 total cpu time :   731.8 secs   av.it.:  10.7
      thresh= 1.018E-07 alpha_mix =  0.700 |ddv_scf|^2 =  2.273E-14

      iter #  18 total cpu time :   734.9 secs   av.it.:  12.0
      thresh= 1.508E-08 alpha_mix =  0.700 |ddv_scf|^2 =  1.587E-14

      iter #  19 total cpu time :   737.9 secs   av.it.:  11.7
      thresh= 1.260E-08 alpha_mix =  0.700 |ddv_scf|^2 =  4.285E-15

      iter #  20 total cpu time :   740.8 secs   av.it.:  11.0
      thresh= 6.546E-09 alpha_mix =  0.700 |ddv_scf|^2 =  7.925E-17

      iter #  21 total cpu time :   743.8 secs   av.it.:  12.0
      thresh= 8.902E-10 alpha_mix =  0.700 |ddv_scf|^2 =  1.906E-16

      iter #  22 total cpu time :   746.3 secs   av.it.:  10.0
      thresh= 1.381E-09 alpha_mix =  0.700 |ddv_scf|^2 =  5.574E-17

      iter #  23 total cpu time :   749.3 secs   av.it.:  12.0
      thresh= 7.466E-10 alpha_mix =  0.700 |ddv_scf|^2 =  3.070E-17

      iter #  24 total cpu time :   752.3 secs   av.it.:  12.0
      thresh= 5.541E-10 alpha_mix =  0.700 |ddv_scf|^2 =  3.174E-17

      iter #  25 total cpu time :   755.2 secs   av.it.:  11.2
      thresh= 5.633E-10 alpha_mix =  0.700 |ddv_scf|^2 =  2.814E-17

      iter #  26 total cpu time :   757.7 secs   av.it.:   9.7
      thresh= 5.304E-10 alpha_mix =  0.700 |ddv_scf|^2 =  1.005E-17

      iter #  27 total cpu time :   760.7 secs   av.it.:  11.4
      thresh= 3.170E-10 alpha_mix =  0.700 |ddv_scf|^2 =  2.445E-17

      iter #  28 total cpu time :   763.5 secs   av.it.:  11.0
      thresh= 4.945E-10 alpha_mix =  0.700 |ddv_scf|^2 =  3.387E-17

      iter #  29 total cpu time :   766.1 secs   av.it.:  10.0
      thresh= 5.820E-10 alpha_mix =  0.700 |ddv_scf|^2 =  9.536E-19

      iter #  30 total cpu time :   769.0 secs   av.it.:  11.3
      thresh= 9.765E-11 alpha_mix =  0.700 |ddv_scf|^2 =  1.104E-18

      iter #  31 total cpu time :   771.8 secs   av.it.:  11.0
      thresh= 1.051E-10 alpha_mix =  0.700 |ddv_scf|^2 =  3.114E-19

      iter #  32 total cpu time :   774.7 secs   av.it.:  11.5
      thresh= 5.580E-11 alpha_mix =  0.700 |ddv_scf|^2 =  1.503E-19

      iter #  33 total cpu time :   777.2 secs   av.it.:  10.0
      thresh= 3.876E-11 alpha_mix =  0.700 |ddv_scf|^2 =  4.051E-21

      iter #  34 total cpu time :   779.9 secs   av.it.:  10.0
      thresh= 6.365E-12 alpha_mix =  0.700 |ddv_scf|^2 =  3.397E-22

     End of self-consistent calculation

     Convergence has been achieved 


     Representation #  10 mode #  10

     Self-consistent Calculation

      iter #   1 total cpu time :   781.8 secs   av.it.:   5.9
      thresh= 1.000E-02 alpha_mix =  0.700 |ddv_scf|^2 =  2.047E-08

      iter #   2 total cpu time :   785.3 secs   av.it.:  14.9
      thresh= 1.431E-05 alpha_mix =  0.700 |ddv_scf|^2 =  2.909E-09

      iter #   3 total cpu time :   788.8 secs   av.it.:  15.0
      thresh= 5.394E-06 alpha_mix =  0.700 |ddv_scf|^2 =  1.116E-10

      iter #   4 total cpu time :   793.8 secs   av.it.:  14.9
      thresh= 1.056E-06 alpha_mix =  0.700 |ddv_scf|^2 =  6.100E-12

      iter #   5 total cpu time :   808.2 secs   av.it.:  14.0
      thresh= 2.470E-07 alpha_mix =  0.700 |ddv_scf|^2 =  5.368E-11

      iter #   6 total cpu time :   810.6 secs   av.it.:   9.9
      thresh= 7.327E-07 alpha_mix =  0.700 |ddv_scf|^2 =  1.912E-13

      iter #   7 total cpu time :   815.4 secs   av.it.:  14.8
      thresh= 4.372E-08 alpha_mix =  0.700 |ddv_scf|^2 =  7.957E-14

      iter #   8 total cpu time :   833.4 secs   av.it.:  14.0
      thresh= 2.821E-08 alpha_mix =  0.700 |ddv_scf|^2 =  4.819E-15

      iter #   9 total cpu time :   836.2 secs   av.it.:  12.0
      thresh= 6.942E-09 alpha_mix =  0.700 |ddv_scf|^2 =  3.406E-16

      iter #  10 total cpu time :   839.4 secs   av.it.:  13.0
      thresh= 1.846E-09 alpha_mix =  0.700 |ddv_scf|^2 =  1.192E-15

      iter #  11 total cpu time :   842.1 secs   av.it.:  10.1
      thresh= 3.453E-09 alpha_mix =  0.700 |ddv_scf|^2 =  5.667E-17

      iter #  12 total cpu time :   845.1 secs   av.it.:  12.1
      thresh= 7.528E-10 alpha_mix =  0.700 |ddv_scf|^2 =  6.419E-17

      iter #  13 total cpu time :   848.1 secs   av.it.:  12.2
      thresh= 8.012E-10 alpha_mix =  0.700 |ddv_scf|^2 =  1.396E-17

      iter #  14 total cpu time :   851.1 secs   av.it.:  12.0
      thresh= 3.736E-10 alpha_mix =  0.700 |ddv_scf|^2 =  8.085E-19

      iter #  15 total cpu time :   854.2 secs   av.it.:  12.8
      thresh= 8.992E-11 alpha_mix =  0.700 |ddv_scf|^2 =  6.492E-19

      iter #  16 total cpu time :   857.3 secs   av.it.:  11.5
      thresh= 8.057E-11 alpha_mix =  0.700 |ddv_scf|^2 =  4.597E-20

      iter #  17 total cpu time :   860.3 secs   av.it.:  12.0
      thresh= 2.144E-11 alpha_mix =  0.700 |ddv_scf|^2 =  1.327E-21

      iter #  18 total cpu time :   863.5 secs   av.it.:  13.6
      thresh= 3.643E-12 alpha_mix =  0.700 |ddv_scf|^2 =  1.438E-21

      iter #  19 total cpu time :   866.3 secs   av.it.:  10.0
      thresh= 3.792E-12 alpha_mix =  0.700 |ddv_scf|^2 =  2.353E-22

     End of self-consistent calculation

     Convergence has been achieved 


     Representation #  11 mode #  11

     Self-consistent Calculation

      iter #   1 total cpu time :   868.2 secs   av.it.:   6.0
      thresh= 1.000E-02 alpha_mix =  0.700 |ddv_scf|^2 =  1.093E-04

      iter #   2 total cpu time :   870.7 secs   av.it.:   9.8
      thresh= 1.046E-03 alpha_mix =  0.700 |ddv_scf|^2 =  5.961E-04

      iter #   3 total cpu time :   873.0 secs   av.it.:   8.1
      thresh= 2.441E-03 alpha_mix =  0.700 |ddv_scf|^2 =  6.584E-05

      iter #   4 total cpu time :   875.3 secs   av.it.:   8.7
      thresh= 8.114E-04 alpha_mix =  0.700 |ddv_scf|^2 =  5.296E-07

      iter #   5 total cpu time :   878.0 secs   av.it.:  10.2
      thresh= 7.278E-05 alpha_mix =  0.700 |ddv_scf|^2 =  3.140E-08

      iter #   6 total cpu time :   880.9 secs   av.it.:  11.2
      thresh= 1.772E-05 alpha_mix =  0.700 |ddv_scf|^2 =  6.135E-10

      iter #   7 total cpu time :   884.0 secs   av.it.:  12.7
      thresh= 2.477E-06 alpha_mix =  0.700 |ddv_scf|^2 =  7.996E-10

      iter #   8 total cpu time :   886.6 secs   av.it.:  10.0
      thresh= 2.828E-06 alpha_mix =  0.700 |ddv_scf|^2 =  3.853E-10

      iter #   9 total cpu time :   889.4 secs   av.it.:  11.0
      thresh= 1.963E-06 alpha_mix =  0.700 |ddv_scf|^2 =  3.001E-12

      iter #  10 total cpu time :   892.3 secs   av.it.:  11.9
      thresh= 1.732E-07 alpha_mix =  0.700 |ddv_scf|^2 =  2.616E-11

      iter #  11 total cpu time :   894.9 secs   av.it.:  10.4
      thresh= 5.115E-07 alpha_mix =  0.700 |ddv_scf|^2 =  2.222E-12

      iter #  12 total cpu time :   898.1 secs   av.it.:  11.6
      thresh= 1.491E-07 alpha_mix =  0.700 |ddv_scf|^2 =  5.521E-13

      iter #  13 total cpu time :   901.5 secs   av.it.:  12.0
      thresh= 7.430E-08 alpha_mix =  0.700 |ddv_scf|^2 =  2.898E-13

      iter #  14 total cpu time :   905.8 secs   av.it.:  13.0
      thresh= 5.384E-08 alpha_mix =  0.700 |ddv_scf|^2 =  1.140E-13

      iter #  15 total cpu time :   908.9 secs   av.it.:  12.1
      thresh= 3.377E-08 alpha_mix =  0.700 |ddv_scf|^2 =  1.998E-14

      iter #  16 total cpu time :   911.4 secs   av.it.:   9.7
      thresh= 1.413E-08 alpha_mix =  0.700 |ddv_scf|^2 =  3.362E-15

      iter #  17 total cpu time :   914.3 secs   av.it.:  12.0
      thresh= 5.798E-09 alpha_mix =  0.700 |ddv_scf|^2 =  3.317E-17

      iter #  18 total cpu time :   918.1 secs   av.it.:  12.9
      thresh= 5.760E-10 alpha_mix =  0.700 |ddv_scf|^2 =  1.950E-17

      iter #  19 total cpu time :   921.4 secs   av.it.:  12.0
      thresh= 4.416E-10 alpha_mix =  0.700 |ddv_scf|^2 =  7.118E-18

      iter #  20 total cpu time :   924.4 secs   av.it.:  12.0
      thresh= 2.668E-10 alpha_mix =  0.700 |ddv_scf|^2 =  1.152E-18

      iter #  21 total cpu time :   927.1 secs   av.it.:  11.0
      thresh= 1.073E-10 alpha_mix =  0.700 |ddv_scf|^2 =  6.182E-18

      iter #  22 total cpu time :   929.9 secs   av.it.:  10.9
      thresh= 2.486E-10 alpha_mix =  0.700 |ddv_scf|^2 =  6.444E-18

      iter #  23 total cpu time :   932.7 secs   av.it.:  10.0
      thresh= 2.539E-10 alpha_mix =  0.700 |ddv_scf|^2 =  1.738E-18

      iter #  24 total cpu time :   935.2 secs   av.it.:   9.2
      thresh= 1.318E-10 alpha_mix =  0.700 |ddv_scf|^2 =  6.096E-21

      iter #  25 total cpu time :   939.5 secs   av.it.:  13.0
      thresh= 7.808E-12 alpha_mix =  0.700 |ddv_scf|^2 =  8.420E-20

      iter #  26 total cpu time :   943.1 secs   av.it.:  10.2
      thresh= 2.902E-11 alpha_mix =  0.700 |ddv_scf|^2 =  2.231E-21

      iter #  27 total cpu time :   945.8 secs   av.it.:  10.9
      thresh= 4.724E-12 alpha_mix =  0.700 |ddv_scf|^2 =  7.367E-21

      iter #  28 total cpu time :   948.2 secs   av.it.:   9.0
      thresh= 8.583E-12 alpha_mix =  0.700 |ddv_scf|^2 =  2.591E-21

      iter #  29 total cpu time :   951.1 secs   av.it.:  10.0
      thresh= 5.090E-12 alpha_mix =  0.700 |ddv_scf|^2 =  9.775E-23

     End of self-consistent calculation

     Convergence has been achieved 


     Representation #  12 mode #  12

     Self-consistent Calculation

      iter #   1 total cpu time :   957.0 secs   av.it.:   6.3
      thresh= 1.000E-02 alpha_mix =  0.700 |ddv_scf|^2 =  9.077E-05

      iter #   2 total cpu time :   959.9 secs   av.it.:  11.6
      thresh= 9.527E-04 alpha_mix =  0.700 |ddv_scf|^2 =  1.856E-03

      iter #   3 total cpu time :   962.2 secs   av.it.:   8.8
      thresh= 4.308E-03 alpha_mix =  0.700 |ddv_scf|^2 =  6.377E-06

      iter #   4 total cpu time :   965.0 secs   av.it.:  11.0
      thresh= 2.525E-04 alpha_mix =  0.700 |ddv_scf|^2 =  8.731E-08

      iter #   5 total cpu time :   968.1 secs   av.it.:  12.9
      thresh= 2.955E-05 alpha_mix =  0.700 |ddv_scf|^2 =  7.025E-07

      iter #   6 total cpu time :   970.7 secs   av.it.:  10.0
      thresh= 8.381E-05 alpha_mix =  0.700 |ddv_scf|^2 =  2.770E-08

      iter #   7 total cpu time :   973.3 secs   av.it.:  10.0
      thresh= 1.664E-05 alpha_mix =  0.700 |ddv_scf|^2 =  8.701E-10

      iter #   8 total cpu time :   976.1 secs   av.it.:  11.0
      thresh= 2.950E-06 alpha_mix =  0.700 |ddv_scf|^2 =  6.408E-10

      iter #   9 total cpu time :   978.6 secs   av.it.:  10.0
      thresh= 2.531E-06 alpha_mix =  0.700 |ddv_scf|^2 =  3.302E-10

      iter #  10 total cpu time :   981.2 secs   av.it.:  10.0
      thresh= 1.817E-06 alpha_mix =  0.700 |ddv_scf|^2 =  2.474E-12

      iter #  11 total cpu time :   984.3 secs   av.it.:  12.5
      thresh= 1.573E-07 alpha_mix =  0.700 |ddv_scf|^2 =  1.096E-11

      iter #  12 total cpu time :   988.1 secs   av.it.:  11.0
      thresh= 3.311E-07 alpha_mix =  0.700 |ddv_scf|^2 =  3.324E-12

      iter #  13 total cpu time :  1002.8 secs   av.it.:  10.4
      thresh= 1.823E-07 alpha_mix =  0.700 |ddv_scf|^2 =  3.478E-13

      iter #  14 total cpu time :  1005.6 secs   av.it.:  11.0
      thresh= 5.897E-08 alpha_mix =  0.700 |ddv_scf|^2 =  1.311E-13

      iter #  15 total cpu time :  1008.4 secs   av.it.:  11.0
      thresh= 3.620E-08 alpha_mix =  0.700 |ddv_scf|^2 =  1.162E-13

      iter #  16 total cpu time :  1010.8 secs   av.it.:   9.3
      thresh= 3.409E-08 alpha_mix =  0.700 |ddv_scf|^2 =  9.449E-16

      iter #  17 total cpu time :  1013.7 secs   av.it.:  11.9
      thresh= 3.074E-09 alpha_mix =  0.700 |ddv_scf|^2 =  2.120E-15

      iter #  18 total cpu time :  1016.7 secs   av.it.:  11.2
      thresh= 4.604E-09 alpha_mix =  0.700 |ddv_scf|^2 =  1.749E-15

      iter #  19 total cpu time :  1019.5 secs   av.it.:  10.9
      thresh= 4.182E-09 alpha_mix =  0.700 |ddv_scf|^2 =  1.247E-16

      iter #  20 total cpu time :  1022.4 secs   av.it.:  10.8
      thresh= 1.117E-09 alpha_mix =  0.700 |ddv_scf|^2 =  6.489E-18

      iter #  21 total cpu time :  1025.4 secs   av.it.:  12.0
      thresh= 2.547E-10 alpha_mix =  0.700 |ddv_scf|^2 =  2.729E-17

      iter #  22 total cpu time :  1028.1 secs   av.it.:  10.8
      thresh= 5.224E-10 alpha_mix =  0.700 |ddv_scf|^2 =  1.428E-19

      iter #  23 total cpu time :  1031.0 secs   av.it.:  12.0
      thresh= 3.779E-11 alpha_mix =  0.700 |ddv_scf|^2 =  2.989E-20

      iter #  24 total cpu time :  1033.8 secs   av.it.:  11.1
      thresh= 1.729E-11 alpha_mix =  0.700 |ddv_scf|^2 =  6.650E-20

      iter #  25 total cpu time :  1036.5 secs   av.it.:  10.3
      thresh= 2.579E-11 alpha_mix =  0.700 |ddv_scf|^2 =  3.778E-20

      iter #  26 total cpu time :  1039.4 secs   av.it.:  11.6
      thresh= 1.944E-11 alpha_mix =  0.700 |ddv_scf|^2 =  3.369E-20

      iter #  27 total cpu time :  1042.2 secs   av.it.:  11.0
      thresh= 1.835E-11 alpha_mix =  0.700 |ddv_scf|^2 =  8.085E-21

      iter #  28 total cpu time :  1044.8 secs   av.it.:  10.0
      thresh= 8.991E-12 alpha_mix =  0.700 |ddv_scf|^2 =  3.127E-21

      iter #  29 total cpu time :  1047.8 secs   av.it.:  11.8
      thresh= 5.592E-12 alpha_mix =  0.700 |ddv_scf|^2 =  9.124E-21

      iter #  30 total cpu time :  1050.4 secs   av.it.:  10.0
      thresh= 9.552E-12 alpha_mix =  0.700 |ddv_scf|^2 =  3.981E-22

     End of self-consistent calculation

     Convergence has been achieved 
 
     Number of q in the star =    1
     List of q in the star:
          1   0.000000000   0.020000000   0.010000000
     In addition there is the -q list: 
          1   0.000000000  -0.020000000  -0.010000000

          Effective charges (d P / du) in cartesian axis 

           atom      1   In 
      Px  (     0.00000    -0.00000    -0.00052    -0.01301     0.00034    -0.00075 )
      Py  (     0.00000     0.00000     0.00000     0.00000     0.00000     0.00000 )
      Pz  (     0.00000     0.00000     0.00000     0.00000     0.00000     0.00000 )
           atom      2   In 
      Px  (    -0.00000     0.00000    -0.00010    -0.01302    -0.00034    -0.00074 )
      Py  (     0.00000     0.00000     0.00000     0.00000     0.00000     0.00000 )
      Pz  (     0.00000     0.00000     0.00000     0.00000     0.00000     0.00000 )
           atom      3   Se 
      Px  (     0.00000     0.00000     0.00044     0.01292     0.00003     0.00070 )
      Py  (     0.00000     0.00000     0.00000     0.00000     0.00000     0.00000 )
      Pz  (     0.00000     0.00000     0.00000     0.00000     0.00000     0.00000 )
           atom      4   Se 
      Px  (    -0.00000    -0.00000    -0.00057     0.01291    -0.00003     0.00070 )
      Py  (     0.00000     0.00000     0.00000     0.00000     0.00000     0.00000 )
      Pz  (     0.00000     0.00000     0.00000     0.00000     0.00000     0.00000 )

     Diagonalizing the dynamical matrix

     q = (    0.000000000   0.020000000   0.010000000 ) 

 **************************************************************************
     freq (    1) =       0.167478 [THz] =       5.586453 [cm-1]
     freq (    2) =       0.188916 [THz] =       6.301546 [cm-1]
     freq (    3) =       0.229324 [THz] =       7.649416 [cm-1]
     freq (    4) =       1.105771 [THz] =      36.884558 [cm-1]
     freq (    5) =       1.115996 [THz] =      37.225614 [cm-1]
     freq (    6) =       2.996656 [THz] =      99.957686 [cm-1]
     freq (    7) =       4.807449 [THz] =     160.359230 [cm-1]
     freq (    8) =       4.810857 [THz] =     160.472914 [cm-1]
     freq (    9) =       4.923941 [THz] =     164.245001 [cm-1]
     freq (   10) =       5.636013 [THz] =     187.997155 [cm-1]
     freq (   11) =       5.744092 [THz] =     191.602295 [cm-1]
     freq (   12) =       6.454348 [THz] =     215.293861 [cm-1]
 **************************************************************************

     Mode symmetry, C_1 (1)     point group:

     freq (   1-   1) =          5.6  [cm-1]   --> A                  
     freq (   2-   2) =          6.3  [cm-1]   --> A                  
     freq (   3-   3) =          7.6  [cm-1]   --> A                  
     freq (   4-   4) =         36.9  [cm-1]   --> A                  
     freq (   5-   5) =         37.2  [cm-1]   --> A                  
     freq (   6-   6) =        100.0  [cm-1]   --> A                  
     freq (   7-   7) =        160.4  [cm-1]   --> A                  
     freq (   8-   8) =        160.5  [cm-1]   --> A                  
     freq (   9-   9) =        164.2  [cm-1]   --> A                  
     freq (  10-  10) =        188.0  [cm-1]   --> A                  
     freq (  11-  11) =        191.6  [cm-1]   --> A                  
     freq (  12-  12) =        215.3  [cm-1]   --> A                  
 
     init_run     :      0.06s CPU      0.08s WALL (       1 calls)
     electrons    :     10.79s CPU     11.02s WALL (       1 calls)

     Called by init_run:
     wfcinit      :      0.00s CPU      0.01s WALL (       1 calls)
     potinit      :      0.01s CPU      0.02s WALL (       1 calls)
     hinit0       :      0.02s CPU      0.02s WALL (       1 calls)

     Called by electrons:
     c_bands      :     10.79s CPU     11.01s WALL (       1 calls)
     v_of_rho     :      0.02s CPU      0.02s WALL (       2 calls)

     Called by c_bands:
     init_us_2    :      3.07s CPU      3.14s WALL (    6120 calls)
     cegterg      :      9.20s CPU      9.34s WALL (      68 calls)

     Called by *egterg:
     cdiaghg      :      0.86s CPU      0.86s WALL (     838 calls)
     h_psi        :    652.62s CPU    665.05s WALL (   91209 calls)
     g_psi        :      0.04s CPU      0.04s WALL (     802 calls)

     Called by h_psi:
     h_psi:calbec :     42.59s CPU     43.33s WALL (   91209 calls)
     vloc_psi     :    579.86s CPU    591.11s WALL (   91209 calls)
     add_vuspsi   :     27.51s CPU     27.95s WALL (   91209 calls)

     General routines
     calbec       :     65.38s CPU     66.47s WALL (  182556 calls)
     fft          :      1.44s CPU      1.52s WALL (    3588 calls)
     ffts         :      0.16s CPU      0.18s WALL (     360 calls)
     fftw         :    634.77s CPU    648.63s WALL ( 3075544 calls)
     davcio       :      3.80s CPU     14.65s WALL (   33076 calls)
 
     Parallel routines
     fft_scatt_xy :     63.14s CPU     64.40s WALL ( 3079492 calls)
     fft_scatt_yz :    191.16s CPU    195.30s WALL ( 3079492 calls)
 
     PHONON       :  16m47.73s CPU  17m32.22s WALL

     INITIALIZATION: 
     phq_setup    :      0.02s CPU      0.05s WALL (       1 calls)
     phq_init     :      0.25s CPU      0.28s WALL (       1 calls)
 
     phq_init     :      0.25s CPU      0.28s WALL (       1 calls)
     init_vloc    :      0.03s CPU      0.03s WALL (       2 calls)
     init_us_1    :      0.05s CPU      0.05s WALL (       2 calls)
 
     DYNAMICAL MATRIX:
     dynmat0      :      0.16s CPU      0.18s WALL (       1 calls)
     phqscf       :    994.97s CPU   1035.60s WALL (       1 calls)
     dynmatrix    :      0.19s CPU      1.61s WALL (       1 calls)
 
     phqscf       :    994.97s CPU   1035.60s WALL (       1 calls)
     solve_linter :    993.96s CPU   1034.02s WALL (      12 calls)
     drhodv       :      0.47s CPU      0.50s WALL (      12 calls)
     add_zstar_ue :      0.52s CPU      0.57s WALL (      12 calls)
 
     dynmat0      :      0.16s CPU      0.18s WALL (       1 calls)
     dynmat_us    :      0.15s CPU      0.16s WALL (       1 calls)
     d2ionq       :      0.00s CPU      0.00s WALL (       1 calls)
 
     dynmat_us    :      0.15s CPU      0.16s WALL (       1 calls)
 
     phqscf       :    994.97s CPU   1035.60s WALL (       1 calls)
     solve_linter :    993.96s CPU   1034.02s WALL (      12 calls)
 
     solve_linter :    993.96s CPU   1034.02s WALL (      12 calls)
     dvqpsi_us    :      2.16s CPU      2.25s WALL (     216 calls)
     ortho        :      2.30s CPU      2.37s WALL (    5832 calls)
     cgsolve      :    752.56s CPU    766.36s WALL (    5832 calls)
     incdrhoscf   :     69.54s CPU     71.64s WALL (    5832 calls)
     vpsifft      :     48.99s CPU     51.69s WALL (    5616 calls)
     dv_of_drho   :      2.42s CPU      2.51s WALL (     324 calls)
     mix_pot      :      1.66s CPU      6.69s WALL (     324 calls)
 
     dvqpsi_us    :      2.16s CPU      2.25s WALL (     216 calls)
     dvqpsi_us_on :      0.24s CPU      0.24s WALL (     216 calls)
 
     cgsolve      :    752.56s CPU    766.36s WALL (    5832 calls)
     ch_psi       :    718.26s CPU    731.45s WALL (   90303 calls)
 
     ch_psi       :    718.26s CPU    731.45s WALL (   90303 calls)
     h_psi        :    652.62s CPU    665.05s WALL (   91209 calls)
     last         :     62.19s CPU     62.91s WALL (   90303 calls)
 
     h_psi        :    652.62s CPU    665.05s WALL (   91209 calls)
     add_vuspsi   :     27.51s CPU     27.95s WALL (   91209 calls)
 
     incdrhoscf   :     69.54s CPU     71.64s WALL (    5832 calls)
 
 
      General routines
     calbec       :     65.38s CPU     66.47s WALL (  182556 calls)
     fft          :      1.44s CPU      1.52s WALL (    3588 calls)
     ffts         :      0.16s CPU      0.18s WALL (     360 calls)
     fftw         :    634.77s CPU    648.63s WALL ( 3075544 calls)
     davcio       :      3.80s CPU     14.65s WALL (   33076 calls)
     write_rec    :      0.26s CPU      8.75s WALL (     336 calls)
 
 
     PHONON       :  16m47.73s CPU  17m32.22s WALL

 
   This run was terminated on:  18:29:25  23Nov2021            

=------------------------------------------------------------------------------=
   JOB DONE.
=------------------------------------------------------------------------------=
TACC:  Shutdown complete. Exiting. 
