TACC:  Starting up job 3814513 
TACC:  Starting parallel tasks... 

     Program PHONON v.6.7MaX starts on 23Nov2021 at 13:15:32 

     This program is part of the open-source Quantum ESPRESSO suite
     for quantum simulation of materials; please cite
         "P. Giannozzi et al., J. Phys.:Condens. Matter 21 395502 (2009);
         "P. Giannozzi et al., J. Phys.:Condens. Matter 29 465901 (2017);
          URL http://www.quantum-espresso.org", 
     in publications or presentations arising from this work. More details at
     http://www.quantum-espresso.org/quote

     Parallel version (MPI), running on   224 processors

     MPI processes distributed on     4 nodes
     K-points division:     npool     =       8
     R & G space division:  proc/nbgrp/npool/nimage =      28
     Waiting for input...
     Reading input from standard input
      Title line not specified: using 'default'.

     Reading xml data from directory:

     ./inse.save/
     Message from routine read_pp_mesh:
     mesh size missing, using the one in header
     Message from routine read_pp_mesh:
     mesh size missing, using the one in header

     IMPORTANT: XC functional enforced from input :
     Exchange-correlation= PBE
                           (   1   4   3   4   0   0   0)
     Any further DFT definition will be discarded
     Please, verify this is what you really want

 
     Parallelization info
     --------------------
     sticks:   dense  smooth     PW     G-vecs:    dense   smooth      PW
     Min          41      41     12                 6735     6735    1102
     Max          42      42     13                 6752     6752    1125
     Sum        1159    1159    349               188879   188879   31191
 
     Reading collected, re-writing distributed wavefunctions

     Calculation of q =    0.0000000   0.0000000   0.0000000

     default                                                                    

     bravais-lattice index     =            4
     lattice parameter (alat)  =       7.7271  a.u.
     unit-cell volume          =    2383.8404 (a.u.)^3
     number of atoms/cell      =            4
     number of atomic types    =            2
     kinetic-energy cut-off    =      70.0000  Ry
     charge density cut-off    =     280.0000  Ry
     convergence threshold     =      1.0E-21
     beta                      =       0.7000
     number of iterations used =            4
     Exchange-correlation= PBE
                           (   1   4   3   4   0   0   0)


     celldm(1)=    7.72713  celldm(2)=    0.00000  celldm(3)=    5.96612
     celldm(4)=    0.00000  celldm(5)=    0.00000  celldm(6)=    0.00000

     crystal axes: (cart. coord. in units of alat)
               a(1) = (  1.0000  0.0000  0.0000 )  
               a(2) = ( -0.5000  0.8660  0.0000 )  
               a(3) = (  0.0000  0.0000  5.9661 )  

     reciprocal axes: (cart. coord. in units 2 pi/alat)
               b(1) = (  1.0000  0.5774  0.0000 )  
               b(2) = (  0.0000  1.1547  0.0000 )  
               b(3) = (  0.0000  0.0000  0.1676 )  


     Atoms inside the unit cell: 

     Cartesian axes

     site n.  atom      mass           positions (alat units)
        1     In 114.8180   tau(    1) = (   -0.00000    0.57735    1.05734  )
        2     In 114.8180   tau(    2) = (   -0.00000    0.57735    1.74917  )
        3     Se  78.9600   tau(    3) = (    0.50000    0.28868    0.74527  )
        4     Se  78.9600   tau(    4) = (    0.50000    0.28868    2.06124  )

     Computing dynamical matrix for 
                    q = (   0.0000000   0.0000000   0.0000000 )
 
      2 Sym.Ops. (with q -> -q+G )


     G cutoff =  423.4815  (   6752 G-vectors)     FFT grid: ( 45, 45,250)
     number of k points=    74
                       cart. coord. in units 2pi/alat
        k(    1) = (   0.0000000   0.0000000   0.0000000), wk =   0.0138889
        k(    2) = (   0.0000000   0.0962250   0.0000000), wk =   0.0277778
        k(    3) = (   0.0000000   0.1924501   0.0000000), wk =   0.0277778
        k(    4) = (   0.0000000   0.2886751   0.0000000), wk =   0.0277778
        k(    5) = (   0.0000000   0.3849002   0.0000000), wk =   0.0277778
        k(    6) = (   0.0000000   0.4811252   0.0000000), wk =   0.0277778
        k(    7) = (   0.0000000  -0.5773503   0.0000000), wk =   0.0138889
        k(    8) = (   0.0833333   0.0481125   0.0000000), wk =   0.0277778
        k(    9) = (   0.0833333   0.1443376   0.0000000), wk =   0.0277778
        k(   10) = (   0.0833333   0.2405626   0.0000000), wk =   0.0277778
        k(   11) = (   0.0833333   0.3367877   0.0000000), wk =   0.0277778
        k(   12) = (   0.0833333   0.4330127   0.0000000), wk =   0.0277778
        k(   13) = (   0.0833333   0.5292377   0.0000000), wk =   0.0277778
        k(   14) = (   0.0833333  -0.5292377   0.0000000), wk =   0.0277778
        k(   15) = (   0.0833333  -0.4330127   0.0000000), wk =   0.0277778
        k(   16) = (   0.0833333  -0.3367877   0.0000000), wk =   0.0277778
        k(   17) = (   0.0833333  -0.2405626   0.0000000), wk =   0.0277778
        k(   18) = (   0.0833333  -0.1443376   0.0000000), wk =   0.0277778
        k(   19) = (   0.0833333  -0.0481125   0.0000000), wk =   0.0277778
        k(   20) = (   0.1666667   0.0962250   0.0000000), wk =   0.0277778
        k(   21) = (   0.1666667   0.1924501   0.0000000), wk =   0.0277778
        k(   22) = (   0.1666667   0.2886751   0.0000000), wk =   0.0277778
        k(   23) = (   0.1666667   0.3849002   0.0000000), wk =   0.0277778
        k(   24) = (   0.1666667   0.4811252   0.0000000), wk =   0.0277778
        k(   25) = (   0.1666667   0.5773503   0.0000000), wk =   0.0277778
        k(   26) = (   0.1666667  -0.4811252   0.0000000), wk =   0.0277778
        k(   27) = (   0.1666667  -0.3849002   0.0000000), wk =   0.0277778
        k(   28) = (   0.1666667  -0.2886751   0.0000000), wk =   0.0277778
        k(   29) = (   0.1666667  -0.1924501   0.0000000), wk =   0.0277778
        k(   30) = (   0.1666667  -0.0962250   0.0000000), wk =   0.0277778
        k(   31) = (   0.1666667  -0.0000000   0.0000000), wk =   0.0277778
        k(   32) = (   0.2500000   0.1443376   0.0000000), wk =   0.0277778
        k(   33) = (   0.2500000   0.2405626   0.0000000), wk =   0.0277778
        k(   34) = (   0.2500000   0.3367877   0.0000000), wk =   0.0277778
        k(   35) = (   0.2500000   0.4330127   0.0000000), wk =   0.0277778
        k(   36) = (   0.2500000   0.5292377   0.0000000), wk =   0.0277778
        k(   37) = (   0.2500000   0.6254628   0.0000000), wk =   0.0277778
        k(   38) = (   0.2500000  -0.4330127   0.0000000), wk =   0.0277778
        k(   39) = (   0.2500000  -0.3367877   0.0000000), wk =   0.0277778
        k(   40) = (   0.2500000  -0.2405626   0.0000000), wk =   0.0277778
        k(   41) = (   0.2500000  -0.1443376   0.0000000), wk =   0.0277778
        k(   42) = (   0.2500000  -0.0481125   0.0000000), wk =   0.0277778
        k(   43) = (   0.2500000   0.0481125   0.0000000), wk =   0.0277778
        k(   44) = (   0.3333333   0.1924501   0.0000000), wk =   0.0277778
        k(   45) = (   0.3333333   0.2886751   0.0000000), wk =   0.0277778
        k(   46) = (   0.3333333   0.3849002   0.0000000), wk =   0.0277778
        k(   47) = (   0.3333333   0.4811252   0.0000000), wk =   0.0277778
        k(   48) = (   0.3333333   0.5773503   0.0000000), wk =   0.0277778
        k(   49) = (   0.3333333   0.6735753   0.0000000), wk =   0.0277778
        k(   50) = (   0.3333333  -0.3849002   0.0000000), wk =   0.0277778
        k(   51) = (   0.3333333  -0.2886751   0.0000000), wk =   0.0277778
        k(   52) = (   0.3333333  -0.1924501   0.0000000), wk =   0.0277778
        k(   53) = (   0.3333333  -0.0962250   0.0000000), wk =   0.0277778
        k(   54) = (   0.3333333   0.0000000   0.0000000), wk =   0.0277778
        k(   55) = (   0.3333333   0.0962250   0.0000000), wk =   0.0277778
        k(   56) = (   0.4166667   0.2405626   0.0000000), wk =   0.0277778
        k(   57) = (   0.4166667   0.3367877   0.0000000), wk =   0.0277778
        k(   58) = (   0.4166667   0.4330127   0.0000000), wk =   0.0277778
        k(   59) = (   0.4166667   0.5292377   0.0000000), wk =   0.0277778
        k(   60) = (   0.4166667   0.6254628   0.0000000), wk =   0.0277778
        k(   61) = (   0.4166667   0.7216878   0.0000000), wk =   0.0277778
        k(   62) = (   0.4166667  -0.3367877   0.0000000), wk =   0.0277778
        k(   63) = (   0.4166667  -0.2405626   0.0000000), wk =   0.0277778
        k(   64) = (   0.4166667  -0.1443376   0.0000000), wk =   0.0277778
        k(   65) = (   0.4166667  -0.0481125   0.0000000), wk =   0.0277778
        k(   66) = (   0.4166667   0.0481125   0.0000000), wk =   0.0277778
        k(   67) = (   0.4166667   0.1443376   0.0000000), wk =   0.0277778
        k(   68) = (  -0.5000000  -0.2886751   0.0000000), wk =   0.0138889
        k(   69) = (  -0.5000000  -0.1924501   0.0000000), wk =   0.0277778
        k(   70) = (  -0.5000000  -0.0962250   0.0000000), wk =   0.0277778
        k(   71) = (  -0.5000000   0.0000000   0.0000000), wk =   0.0277778
        k(   72) = (  -0.5000000   0.0962250   0.0000000), wk =   0.0277778
        k(   73) = (  -0.5000000   0.1924501   0.0000000), wk =   0.0277778
        k(   74) = (  -0.5000000  -0.8660254   0.0000000), wk =   0.0138889

     PseudoPot. # 1 for In read from file:
     ./In_ONCV_PBE-1.2.upf
     MD5 check sum: 2123f823f6143602c63cd302e3a0bdd6
     Pseudo is Norm-conserving, Zval = 13.0
     Generated using ONCVPSP code by D. R. Hamann
     Using radial grid of  602 points,  6 beta functions with: 
                l(1) =   0
                l(2) =   0
                l(3) =   1
                l(4) =   1
                l(5) =   2
                l(6) =   2

     PseudoPot. # 2 for Se read from file:
     ./Se_ONCV_PBE-1.2.upf
     MD5 check sum: e78e48a4f5d8ce1f8dc76ec1271f249c
     Pseudo is Norm-conserving, Zval =  6.0
     Generated using ONCVPSP code by D. R. Hamann
     Using radial grid of  602 points,  6 beta functions with: 
                l(1) =   0
                l(2) =   0
                l(3) =   1
                l(4) =   1
                l(5) =   2
                l(6) =   2

     Mode symmetry, C_1 (1)     point group:


     Electric field:
     Dielectric constant
     Born effective charges as d Force / d E


     Atomic displacements:
     There are   12 irreducible representations

     Representation     1      1 modes -  To be done

     Representation     2      1 modes -  To be done

     Representation     3      1 modes -  To be done

     Representation     4      1 modes -  To be done

     Representation     5      1 modes -  To be done

     Representation     6      1 modes -  To be done

     Representation     7      1 modes -  To be done

     Representation     8      1 modes -  To be done

     Representation     9      1 modes -  To be done

     Representation    10      1 modes -  To be done

     Representation    11      1 modes -  To be done

     Representation    12      1 modes -  To be done



     Alpha used in Ewald sum =   2.6000
     PHONON       :      0.61s CPU      0.95s WALL


     Electric Fields Calculation

      iter #   1 total cpu time :    15.5 secs   av.it.:   8.4
      thresh= 1.000E-02 alpha_mix =  0.700 |ddv_scf|^2 =  4.099E-04

      iter #   2 total cpu time :    21.0 secs   av.it.:  10.5
      thresh= 2.025E-03 alpha_mix =  0.700 |ddv_scf|^2 =  7.505E-03

      iter #   3 total cpu time :    38.2 secs   av.it.:   5.9
      thresh= 8.663E-03 alpha_mix =  0.700 |ddv_scf|^2 =  3.476E-06

      iter #   4 total cpu time :    43.1 secs   av.it.:  11.4
      thresh= 1.865E-04 alpha_mix =  0.700 |ddv_scf|^2 =  5.367E-07

      iter #   5 total cpu time :    48.0 secs   av.it.:  11.5
      thresh= 7.326E-05 alpha_mix =  0.700 |ddv_scf|^2 =  1.551E-08

      iter #   6 total cpu time :    53.1 secs   av.it.:  11.8
      thresh= 1.245E-05 alpha_mix =  0.700 |ddv_scf|^2 =  1.064E-08

      iter #   7 total cpu time :    58.7 secs   av.it.:  11.5
      thresh= 1.031E-05 alpha_mix =  0.700 |ddv_scf|^2 =  1.313E-11

      iter #   8 total cpu time :    74.4 secs   av.it.:  14.2
      thresh= 3.624E-07 alpha_mix =  0.700 |ddv_scf|^2 =  3.094E-12

      iter #   9 total cpu time :    81.3 secs   av.it.:  14.9
      thresh= 1.759E-07 alpha_mix =  0.700 |ddv_scf|^2 =  1.302E-12

      iter #  10 total cpu time :    86.7 secs   av.it.:  13.0
      thresh= 1.141E-07 alpha_mix =  0.700 |ddv_scf|^2 =  5.176E-13

      iter #  11 total cpu time :    92.6 secs   av.it.:  14.4
      thresh= 7.195E-08 alpha_mix =  0.700 |ddv_scf|^2 =  4.332E-14

      iter #  12 total cpu time :    98.4 secs   av.it.:  14.0
      thresh= 2.081E-08 alpha_mix =  0.700 |ddv_scf|^2 =  3.488E-14

      iter #  13 total cpu time :   104.3 secs   av.it.:  14.8
      thresh= 1.868E-08 alpha_mix =  0.700 |ddv_scf|^2 =  2.811E-15

      iter #  14 total cpu time :   110.0 secs   av.it.:  14.0
      thresh= 5.302E-09 alpha_mix =  0.700 |ddv_scf|^2 =  5.238E-14

      iter #  15 total cpu time :   114.5 secs   av.it.:  10.1
      thresh= 2.289E-08 alpha_mix =  0.700 |ddv_scf|^2 =  8.392E-17

      iter #  16 total cpu time :   120.4 secs   av.it.:  14.5
      thresh= 9.161E-10 alpha_mix =  0.700 |ddv_scf|^2 =  3.626E-16

      iter #  17 total cpu time :   125.7 secs   av.it.:  12.7
      thresh= 1.904E-09 alpha_mix =  0.700 |ddv_scf|^2 =  1.443E-17

      iter #  18 total cpu time :   131.7 secs   av.it.:  14.7
      thresh= 3.799E-10 alpha_mix =  0.700 |ddv_scf|^2 =  7.162E-18

      iter #  19 total cpu time :   137.5 secs   av.it.:  14.2
      thresh= 2.676E-10 alpha_mix =  0.700 |ddv_scf|^2 =  1.041E-18

      iter #  20 total cpu time :   143.3 secs   av.it.:  14.3
      thresh= 1.020E-10 alpha_mix =  0.700 |ddv_scf|^2 =  2.054E-21

      iter #  21 total cpu time :   149.2 secs   av.it.:  14.1
      thresh= 4.532E-12 alpha_mix =  0.700 |ddv_scf|^2 =  2.441E-20

      iter #  22 total cpu time :   154.0 secs   av.it.:  10.8
      thresh= 1.562E-11 alpha_mix =  0.700 |ddv_scf|^2 =  1.047E-21

      iter #  23 total cpu time :   159.1 secs   av.it.:  12.0
      thresh= 3.236E-12 alpha_mix =  0.700 |ddv_scf|^2 =  4.757E-22

     End of electric fields calculation

          Dielectric constant in cartesian axis 

          (       3.447177977      -0.000000002       0.000000017 )
          (      -0.000000002       3.447177988       0.000000017 )
          (       0.000000005       0.000000003       1.425135641 )

          Effective charges (d Force / dE) in cartesian axis

           atom      1   In 
      Ex  (        2.46141        0.00000       -0.00000 )
      Ey  (        0.00000        2.46141       -0.00000 )
      Ez  (       -0.00000        0.00000        0.23902 )
           atom      2   In 
      Ex  (        2.46141        0.00000       -0.00000 )
      Ey  (       -0.00000        2.46141       -0.00000 )
      Ez  (       -0.00000        0.00000        0.23902 )
           atom      3   Se 
      Ex  (       -2.46245       -0.00000       -0.00000 )
      Ey  (       -0.00000       -2.46245       -0.00000 )
      Ez  (       -0.00000        0.00000       -0.23869 )
           atom      4   Se 
      Ex  (       -2.46246       -0.00000       -0.00000 )
      Ey  (       -0.00000       -2.46246       -0.00000 )
      Ez  (       -0.00000       -0.00000       -0.23867 )

     Calling punch_plot_e
     Writing on file  drho                                                                                                                                                                                                                                                            


     Representation #   1 mode #   1

     Self-consistent Calculation

      iter #   1 total cpu time :   162.7 secs   av.it.:   8.0
      thresh= 1.000E-02 alpha_mix =  0.700 |ddv_scf|^2 =  4.408E-07

      iter #   2 total cpu time :   164.8 secs   av.it.:  15.6
      thresh= 6.639E-05 alpha_mix =  0.700 |ddv_scf|^2 =  2.107E-07

      iter #   3 total cpu time :   166.8 secs   av.it.:  14.9
      thresh= 4.591E-05 alpha_mix =  0.700 |ddv_scf|^2 =  2.157E-10

      iter #   4 total cpu time :   168.9 secs   av.it.:  14.9
      thresh= 1.469E-06 alpha_mix =  0.700 |ddv_scf|^2 =  3.685E-11

      iter #   5 total cpu time :   170.9 secs   av.it.:  14.8
      thresh= 6.070E-07 alpha_mix =  0.700 |ddv_scf|^2 =  1.696E-12

      iter #   6 total cpu time :   172.9 secs   av.it.:  14.8
      thresh= 1.302E-07 alpha_mix =  0.700 |ddv_scf|^2 =  8.188E-12

      iter #   7 total cpu time :   174.5 secs   av.it.:  11.0
      thresh= 2.862E-07 alpha_mix =  0.700 |ddv_scf|^2 =  3.780E-13

      iter #   8 total cpu time :   176.5 secs   av.it.:  13.9
      thresh= 6.148E-08 alpha_mix =  0.700 |ddv_scf|^2 =  2.045E-14

      iter #   9 total cpu time :   178.5 secs   av.it.:  14.1
      thresh= 1.430E-08 alpha_mix =  0.700 |ddv_scf|^2 =  2.710E-14

      iter #  10 total cpu time :   180.3 secs   av.it.:  13.0
      thresh= 1.646E-08 alpha_mix =  0.700 |ddv_scf|^2 =  1.450E-15

      iter #  11 total cpu time :   182.3 secs   av.it.:  14.6
      thresh= 3.807E-09 alpha_mix =  0.700 |ddv_scf|^2 =  9.273E-17

      iter #  12 total cpu time :   184.4 secs   av.it.:  14.9
      thresh= 9.630E-10 alpha_mix =  0.700 |ddv_scf|^2 =  1.092E-16

      iter #  13 total cpu time :   186.2 secs   av.it.:  12.8
      thresh= 1.045E-09 alpha_mix =  0.700 |ddv_scf|^2 =  1.142E-16

      iter #  14 total cpu time :   188.1 secs   av.it.:  12.9
      thresh= 1.069E-09 alpha_mix =  0.700 |ddv_scf|^2 =  3.046E-18

      iter #  15 total cpu time :   190.1 secs   av.it.:  14.2
      thresh= 1.745E-10 alpha_mix =  0.700 |ddv_scf|^2 =  2.058E-18

      iter #  16 total cpu time :   191.8 secs   av.it.:  12.1
      thresh= 1.434E-10 alpha_mix =  0.700 |ddv_scf|^2 =  7.649E-19

      iter #  17 total cpu time :   193.8 secs   av.it.:  13.9
      thresh= 8.746E-11 alpha_mix =  0.700 |ddv_scf|^2 =  2.511E-20

      iter #  18 total cpu time :   195.8 secs   av.it.:  14.9
      thresh= 1.585E-11 alpha_mix =  0.700 |ddv_scf|^2 =  9.295E-21

      iter #  19 total cpu time :   197.7 secs   av.it.:  14.1
      thresh= 9.641E-12 alpha_mix =  0.700 |ddv_scf|^2 =  3.510E-20

      iter #  20 total cpu time :   199.5 secs   av.it.:  12.0
      thresh= 1.874E-11 alpha_mix =  0.700 |ddv_scf|^2 =  1.851E-21

      iter #  21 total cpu time :   201.5 secs   av.it.:  14.1
      thresh= 4.302E-12 alpha_mix =  0.700 |ddv_scf|^2 =  2.713E-22

     End of self-consistent calculation

     Convergence has been achieved 


     Representation #   2 mode #   2

     Self-consistent Calculation

      iter #   1 total cpu time :   202.9 secs   av.it.:   8.0
      thresh= 1.000E-02 alpha_mix =  0.700 |ddv_scf|^2 =  4.410E-07

      iter #   2 total cpu time :   205.0 secs   av.it.:  15.7
      thresh= 6.641E-05 alpha_mix =  0.700 |ddv_scf|^2 =  2.109E-07

      iter #   3 total cpu time :   207.1 secs   av.it.:  14.9
      thresh= 4.592E-05 alpha_mix =  0.700 |ddv_scf|^2 =  3.499E-10

      iter #   4 total cpu time :   209.1 secs   av.it.:  14.8
      thresh= 1.870E-06 alpha_mix =  0.700 |ddv_scf|^2 =  1.114E-09

      iter #   5 total cpu time :   210.8 secs   av.it.:  11.0
      thresh= 3.338E-06 alpha_mix =  0.700 |ddv_scf|^2 =  1.303E-10

      iter #   6 total cpu time :   212.7 secs   av.it.:  13.6
      thresh= 1.141E-06 alpha_mix =  0.700 |ddv_scf|^2 =  3.847E-12

      iter #   7 total cpu time :   214.7 secs   av.it.:  14.4
      thresh= 1.961E-07 alpha_mix =  0.700 |ddv_scf|^2 =  8.308E-12

      iter #   8 total cpu time :   216.5 secs   av.it.:  12.3
      thresh= 2.882E-07 alpha_mix =  0.700 |ddv_scf|^2 =  1.045E-13

      iter #   9 total cpu time :   218.6 secs   av.it.:  14.7
      thresh= 3.233E-08 alpha_mix =  0.700 |ddv_scf|^2 =  6.118E-15

      iter #  10 total cpu time :   220.7 secs   av.it.:  15.0
      thresh= 7.822E-09 alpha_mix =  0.700 |ddv_scf|^2 =  4.547E-15

      iter #  11 total cpu time :   222.6 secs   av.it.:  13.0
      thresh= 6.743E-09 alpha_mix =  0.700 |ddv_scf|^2 =  8.967E-15

      iter #  12 total cpu time :   224.3 secs   av.it.:  12.0
      thresh= 9.470E-09 alpha_mix =  0.700 |ddv_scf|^2 =  1.174E-16

      iter #  13 total cpu time :   226.4 secs   av.it.:  14.9
      thresh= 1.083E-09 alpha_mix =  0.700 |ddv_scf|^2 =  1.144E-16

      iter #  14 total cpu time :   228.2 secs   av.it.:  12.2
      thresh= 1.069E-09 alpha_mix =  0.700 |ddv_scf|^2 =  5.923E-17

      iter #  15 total cpu time :   230.1 secs   av.it.:  13.6
      thresh= 7.696E-10 alpha_mix =  0.700 |ddv_scf|^2 =  1.170E-18

      iter #  16 total cpu time :   232.2 secs   av.it.:  15.0
      thresh= 1.082E-10 alpha_mix =  0.700 |ddv_scf|^2 =  4.605E-19

      iter #  17 total cpu time :   234.4 secs   av.it.:  14.4
      thresh= 6.786E-11 alpha_mix =  0.700 |ddv_scf|^2 =  1.839E-18

      iter #  18 total cpu time :   236.5 secs   av.it.:  11.3
      thresh= 1.356E-10 alpha_mix =  0.700 |ddv_scf|^2 =  8.807E-20

      iter #  19 total cpu time :   239.2 secs   av.it.:  14.0
      thresh= 2.968E-11 alpha_mix =  0.700 |ddv_scf|^2 =  1.035E-20

      iter #  20 total cpu time :   261.8 secs   av.it.:  14.0
      thresh= 1.017E-11 alpha_mix =  0.700 |ddv_scf|^2 =  1.632E-20

      iter #  21 total cpu time :   264.2 secs   av.it.:  13.0
      thresh= 1.278E-11 alpha_mix =  0.700 |ddv_scf|^2 =  9.114E-22

     End of self-consistent calculation

     Convergence has been achieved 


     Representation #   3 mode #   3

     Self-consistent Calculation

      iter #   1 total cpu time :   265.7 secs   av.it.:   9.0
      thresh= 1.000E-02 alpha_mix =  0.700 |ddv_scf|^2 =  6.242E-05

      iter #   2 total cpu time :   267.6 secs   av.it.:  13.6
      thresh= 7.901E-04 alpha_mix =  0.700 |ddv_scf|^2 =  1.046E-03

      iter #   3 total cpu time :   269.3 secs   av.it.:  10.5
      thresh= 3.234E-03 alpha_mix =  0.700 |ddv_scf|^2 =  9.715E-06

      iter #   4 total cpu time :   271.0 secs   av.it.:  11.9
      thresh= 3.117E-04 alpha_mix =  0.700 |ddv_scf|^2 =  3.974E-08

      iter #   5 total cpu time :   273.1 secs   av.it.:  15.0
      thresh= 1.994E-05 alpha_mix =  0.700 |ddv_scf|^2 =  1.019E-08

      iter #   6 total cpu time :   275.0 secs   av.it.:  13.8
      thresh= 1.009E-05 alpha_mix =  0.700 |ddv_scf|^2 =  9.127E-10

      iter #   7 total cpu time :   276.8 secs   av.it.:  12.5
      thresh= 3.021E-06 alpha_mix =  0.700 |ddv_scf|^2 =  1.073E-10

      iter #   8 total cpu time :   278.7 secs   av.it.:  13.1
      thresh= 1.036E-06 alpha_mix =  0.700 |ddv_scf|^2 =  2.771E-11

      iter #   9 total cpu time :   280.7 secs   av.it.:  13.3
      thresh= 5.264E-07 alpha_mix =  0.700 |ddv_scf|^2 =  5.509E-11

      iter #  10 total cpu time :   282.6 secs   av.it.:  12.0
      thresh= 7.422E-07 alpha_mix =  0.700 |ddv_scf|^2 =  1.017E-12

      iter #  11 total cpu time :   284.6 secs   av.it.:  14.9
      thresh= 1.008E-07 alpha_mix =  0.700 |ddv_scf|^2 =  1.045E-12

      iter #  12 total cpu time :   286.4 secs   av.it.:  12.9
      thresh= 1.022E-07 alpha_mix =  0.700 |ddv_scf|^2 =  3.333E-14

      iter #  13 total cpu time :   288.3 secs   av.it.:  13.2
      thresh= 1.826E-08 alpha_mix =  0.700 |ddv_scf|^2 =  4.199E-15

      iter #  14 total cpu time :   290.2 secs   av.it.:  13.4
      thresh= 6.480E-09 alpha_mix =  0.700 |ddv_scf|^2 =  8.272E-16

      iter #  15 total cpu time :   292.1 secs   av.it.:  13.5
      thresh= 2.876E-09 alpha_mix =  0.700 |ddv_scf|^2 =  8.104E-17

      iter #  16 total cpu time :   294.0 secs   av.it.:  13.5
      thresh= 9.002E-10 alpha_mix =  0.700 |ddv_scf|^2 =  2.927E-17

      iter #  17 total cpu time :   295.9 secs   av.it.:  13.9
      thresh= 5.410E-10 alpha_mix =  0.700 |ddv_scf|^2 =  2.338E-17

      iter #  18 total cpu time :   297.8 secs   av.it.:  12.6
      thresh= 4.836E-10 alpha_mix =  0.700 |ddv_scf|^2 =  8.565E-20

      iter #  19 total cpu time :   299.9 secs   av.it.:  15.0
      thresh= 2.927E-11 alpha_mix =  0.700 |ddv_scf|^2 =  9.163E-20

      iter #  20 total cpu time :   301.8 secs   av.it.:  13.8
      thresh= 3.027E-11 alpha_mix =  0.700 |ddv_scf|^2 =  2.608E-20

      iter #  21 total cpu time :   303.7 secs   av.it.:  13.0
      thresh= 1.615E-11 alpha_mix =  0.700 |ddv_scf|^2 =  3.007E-21

      iter #  22 total cpu time :   305.6 secs   av.it.:  13.6
      thresh= 5.484E-12 alpha_mix =  0.700 |ddv_scf|^2 =  1.535E-22

     End of self-consistent calculation

     Convergence has been achieved 


     Representation #   4 mode #   4

     Self-consistent Calculation

      iter #   1 total cpu time :   307.0 secs   av.it.:   8.0
      thresh= 1.000E-02 alpha_mix =  0.700 |ddv_scf|^2 =  4.408E-07

      iter #   2 total cpu time :   309.1 secs   av.it.:  15.6
      thresh= 6.639E-05 alpha_mix =  0.700 |ddv_scf|^2 =  2.108E-07

      iter #   3 total cpu time :   311.2 secs   av.it.:  14.9
      thresh= 4.591E-05 alpha_mix =  0.700 |ddv_scf|^2 =  2.259E-10

      iter #   4 total cpu time :   313.2 secs   av.it.:  14.9
      thresh= 1.503E-06 alpha_mix =  0.700 |ddv_scf|^2 =  3.806E-11

      iter #   5 total cpu time :   315.2 secs   av.it.:  14.8
      thresh= 6.169E-07 alpha_mix =  0.700 |ddv_scf|^2 =  1.812E-12

      iter #   6 total cpu time :   317.3 secs   av.it.:  14.9
      thresh= 1.346E-07 alpha_mix =  0.700 |ddv_scf|^2 =  8.251E-12

      iter #   7 total cpu time :   318.9 secs   av.it.:  11.0
      thresh= 2.872E-07 alpha_mix =  0.700 |ddv_scf|^2 =  3.577E-13

      iter #   8 total cpu time :   320.8 secs   av.it.:  13.9
      thresh= 5.981E-08 alpha_mix =  0.700 |ddv_scf|^2 =  1.960E-14

      iter #   9 total cpu time :   322.9 secs   av.it.:  14.1
      thresh= 1.400E-08 alpha_mix =  0.700 |ddv_scf|^2 =  2.535E-14

      iter #  10 total cpu time :   324.7 secs   av.it.:  13.0
      thresh= 1.592E-08 alpha_mix =  0.700 |ddv_scf|^2 =  1.434E-15

      iter #  11 total cpu time :   326.7 secs   av.it.:  14.5
      thresh= 3.787E-09 alpha_mix =  0.700 |ddv_scf|^2 =  8.932E-17

      iter #  12 total cpu time :   328.8 secs   av.it.:  14.9
      thresh= 9.451E-10 alpha_mix =  0.700 |ddv_scf|^2 =  1.078E-16

      iter #  13 total cpu time :   330.6 secs   av.it.:  12.8
      thresh= 1.038E-09 alpha_mix =  0.700 |ddv_scf|^2 =  1.086E-16

      iter #  14 total cpu time :   332.4 secs   av.it.:  13.0
      thresh= 1.042E-09 alpha_mix =  0.700 |ddv_scf|^2 =  2.998E-18

      iter #  15 total cpu time :   335.0 secs   av.it.:  14.2
      thresh= 1.731E-10 alpha_mix =  0.700 |ddv_scf|^2 =  1.646E-18

      iter #  16 total cpu time :   337.9 secs   av.it.:  12.1
      thresh= 1.283E-10 alpha_mix =  0.700 |ddv_scf|^2 =  7.091E-19

      iter #  17 total cpu time :   341.3 secs   av.it.:  13.9
      thresh= 8.421E-11 alpha_mix =  0.700 |ddv_scf|^2 =  2.067E-20

      iter #  18 total cpu time :   359.9 secs   av.it.:  14.9
      thresh= 1.438E-11 alpha_mix =  0.700 |ddv_scf|^2 =  7.488E-21

      iter #  19 total cpu time :   361.9 secs   av.it.:  14.1
      thresh= 8.653E-12 alpha_mix =  0.700 |ddv_scf|^2 =  2.995E-20

      iter #  20 total cpu time :   363.6 secs   av.it.:  12.0
      thresh= 1.731E-11 alpha_mix =  0.700 |ddv_scf|^2 =  1.694E-21

      iter #  21 total cpu time :   365.6 secs   av.it.:  14.1
      thresh= 4.115E-12 alpha_mix =  0.700 |ddv_scf|^2 =  2.487E-22

     End of self-consistent calculation

     Convergence has been achieved 


     Representation #   5 mode #   5

     Self-consistent Calculation

      iter #   1 total cpu time :   367.0 secs   av.it.:   8.0
      thresh= 1.000E-02 alpha_mix =  0.700 |ddv_scf|^2 =  4.408E-07

      iter #   2 total cpu time :   369.1 secs   av.it.:  15.7
      thresh= 6.639E-05 alpha_mix =  0.700 |ddv_scf|^2 =  2.108E-07

      iter #   3 total cpu time :   371.2 secs   av.it.:  14.9
      thresh= 4.591E-05 alpha_mix =  0.700 |ddv_scf|^2 =  3.172E-10

      iter #   4 total cpu time :   373.2 secs   av.it.:  14.9
      thresh= 1.781E-06 alpha_mix =  0.700 |ddv_scf|^2 =  1.197E-09

      iter #   5 total cpu time :   374.9 secs   av.it.:  11.0
      thresh= 3.460E-06 alpha_mix =  0.700 |ddv_scf|^2 =  1.113E-10

      iter #   6 total cpu time :   376.8 secs   av.it.:  13.7
      thresh= 1.055E-06 alpha_mix =  0.700 |ddv_scf|^2 =  2.442E-12

      iter #   7 total cpu time :   378.8 secs   av.it.:  14.0
      thresh= 1.563E-07 alpha_mix =  0.700 |ddv_scf|^2 =  7.359E-12

      iter #   8 total cpu time :   380.6 secs   av.it.:  12.1
      thresh= 2.713E-07 alpha_mix =  0.700 |ddv_scf|^2 =  6.932E-14

      iter #   9 total cpu time :   382.6 secs   av.it.:  14.1
      thresh= 2.633E-08 alpha_mix =  0.700 |ddv_scf|^2 =  4.043E-15

      iter #  10 total cpu time :   384.7 secs   av.it.:  15.0
      thresh= 6.359E-09 alpha_mix =  0.700 |ddv_scf|^2 =  5.646E-15

      iter #  11 total cpu time :   386.8 secs   av.it.:  13.0
      thresh= 7.514E-09 alpha_mix =  0.700 |ddv_scf|^2 =  9.716E-15

      iter #  12 total cpu time :   388.6 secs   av.it.:  12.4
      thresh= 9.857E-09 alpha_mix =  0.700 |ddv_scf|^2 =  1.389E-16

      iter #  13 total cpu time :   390.7 secs   av.it.:  14.9
      thresh= 1.178E-09 alpha_mix =  0.700 |ddv_scf|^2 =  9.681E-17

      iter #  14 total cpu time :   392.5 secs   av.it.:  12.5
      thresh= 9.839E-10 alpha_mix =  0.700 |ddv_scf|^2 =  4.319E-17

      iter #  15 total cpu time :   394.4 secs   av.it.:  13.4
      thresh= 6.572E-10 alpha_mix =  0.700 |ddv_scf|^2 =  8.193E-19

      iter #  16 total cpu time :   396.5 secs   av.it.:  15.0
      thresh= 9.052E-11 alpha_mix =  0.700 |ddv_scf|^2 =  2.449E-19

      iter #  17 total cpu time :   398.5 secs   av.it.:  14.5
      thresh= 4.949E-11 alpha_mix =  0.700 |ddv_scf|^2 =  1.404E-18

      iter #  18 total cpu time :   400.2 secs   av.it.:  11.3
      thresh= 1.185E-10 alpha_mix =  0.700 |ddv_scf|^2 =  6.859E-20

      iter #  19 total cpu time :   402.1 secs   av.it.:  14.0
      thresh= 2.619E-11 alpha_mix =  0.700 |ddv_scf|^2 =  6.208E-21

      iter #  20 total cpu time :   404.2 secs   av.it.:  14.0
      thresh= 7.879E-12 alpha_mix =  0.700 |ddv_scf|^2 =  1.654E-20

      iter #  21 total cpu time :   406.0 secs   av.it.:  12.9
      thresh= 1.286E-11 alpha_mix =  0.700 |ddv_scf|^2 =  4.764E-22

     End of self-consistent calculation

     Convergence has been achieved 


     Representation #   6 mode #   6

     Self-consistent Calculation

      iter #   1 total cpu time :   407.5 secs   av.it.:   9.0
      thresh= 1.000E-02 alpha_mix =  0.700 |ddv_scf|^2 =  6.241E-05

      iter #   2 total cpu time :   409.4 secs   av.it.:  13.6
      thresh= 7.900E-04 alpha_mix =  0.700 |ddv_scf|^2 =  1.045E-03

      iter #   3 total cpu time :   411.0 secs   av.it.:  10.5
      thresh= 3.232E-03 alpha_mix =  0.700 |ddv_scf|^2 =  9.785E-06

      iter #   4 total cpu time :   412.7 secs   av.it.:  11.9
      thresh= 3.128E-04 alpha_mix =  0.700 |ddv_scf|^2 =  3.988E-08

      iter #   5 total cpu time :   414.8 secs   av.it.:  15.0
      thresh= 1.997E-05 alpha_mix =  0.700 |ddv_scf|^2 =  1.170E-08

      iter #   6 total cpu time :   416.7 secs   av.it.:  13.5
      thresh= 1.082E-05 alpha_mix =  0.700 |ddv_scf|^2 =  4.687E-10

      iter #   7 total cpu time :   418.5 secs   av.it.:  12.2
      thresh= 2.165E-06 alpha_mix =  0.700 |ddv_scf|^2 =  1.842E-11

      iter #   8 total cpu time :   420.7 secs   av.it.:  13.9
      thresh= 4.292E-07 alpha_mix =  0.700 |ddv_scf|^2 =  1.504E-11

      iter #   9 total cpu time :   430.3 secs   av.it.:  13.1
      thresh= 3.878E-07 alpha_mix =  0.700 |ddv_scf|^2 =  1.108E-11

      iter #  10 total cpu time :   437.7 secs   av.it.:  12.8
      thresh= 3.329E-07 alpha_mix =  0.700 |ddv_scf|^2 =  5.510E-13

      iter #  11 total cpu time :   439.7 secs   av.it.:  14.7
      thresh= 7.423E-08 alpha_mix =  0.700 |ddv_scf|^2 =  5.352E-13

      iter #  12 total cpu time :   441.5 secs   av.it.:  12.5
      thresh= 7.316E-08 alpha_mix =  0.700 |ddv_scf|^2 =  4.898E-13

      iter #  13 total cpu time :   443.3 secs   av.it.:  12.4
      thresh= 6.999E-08 alpha_mix =  0.700 |ddv_scf|^2 =  9.034E-15

      iter #  14 total cpu time :   445.2 secs   av.it.:  13.4
      thresh= 9.505E-09 alpha_mix =  0.700 |ddv_scf|^2 =  1.157E-15

      iter #  15 total cpu time :   447.1 secs   av.it.:  13.8
      thresh= 3.402E-09 alpha_mix =  0.700 |ddv_scf|^2 =  3.213E-15

      iter #  16 total cpu time :   449.0 secs   av.it.:  12.2
      thresh= 5.668E-09 alpha_mix =  0.700 |ddv_scf|^2 =  2.154E-16

      iter #  17 total cpu time :   450.9 secs   av.it.:  14.0
      thresh= 1.468E-09 alpha_mix =  0.700 |ddv_scf|^2 =  1.964E-16

      iter #  18 total cpu time :   452.7 secs   av.it.:  12.9
      thresh= 1.401E-09 alpha_mix =  0.700 |ddv_scf|^2 =  9.842E-19

      iter #  19 total cpu time :   454.7 secs   av.it.:  14.6
      thresh= 9.921E-11 alpha_mix =  0.700 |ddv_scf|^2 =  1.645E-19

      iter #  20 total cpu time :   456.7 secs   av.it.:  14.0
      thresh= 4.056E-11 alpha_mix =  0.700 |ddv_scf|^2 =  5.987E-21

      iter #  21 total cpu time :   458.6 secs   av.it.:  13.9
      thresh= 7.738E-12 alpha_mix =  0.700 |ddv_scf|^2 =  3.055E-21

      iter #  22 total cpu time :   460.6 secs   av.it.:  13.9
      thresh= 5.527E-12 alpha_mix =  0.700 |ddv_scf|^2 =  1.714E-21

      iter #  23 total cpu time :   462.4 secs   av.it.:  12.9
      thresh= 4.140E-12 alpha_mix =  0.700 |ddv_scf|^2 =  1.640E-22

     End of self-consistent calculation

     Convergence has been achieved 


     Representation #   7 mode #   7

     Self-consistent Calculation

      iter #   1 total cpu time :   463.6 secs   av.it.:   5.9
      thresh= 1.000E-02 alpha_mix =  0.700 |ddv_scf|^2 =  2.045E-08

      iter #   2 total cpu time :   465.7 secs   av.it.:  14.9
      thresh= 1.430E-05 alpha_mix =  0.700 |ddv_scf|^2 =  2.898E-09

      iter #   3 total cpu time :   467.7 secs   av.it.:  14.9
      thresh= 5.384E-06 alpha_mix =  0.700 |ddv_scf|^2 =  1.125E-10

      iter #   4 total cpu time :   469.8 secs   av.it.:  14.9
      thresh= 1.061E-06 alpha_mix =  0.700 |ddv_scf|^2 =  4.985E-12

      iter #   5 total cpu time :   471.7 secs   av.it.:  14.2
      thresh= 2.233E-07 alpha_mix =  0.700 |ddv_scf|^2 =  8.981E-13

      iter #   6 total cpu time :   473.6 secs   av.it.:  13.1
      thresh= 9.477E-08 alpha_mix =  0.700 |ddv_scf|^2 =  1.765E-12

      iter #   7 total cpu time :   475.4 secs   av.it.:  12.4
      thresh= 1.329E-07 alpha_mix =  0.700 |ddv_scf|^2 =  4.673E-14

      iter #   8 total cpu time :   477.4 secs   av.it.:  14.4
      thresh= 2.162E-08 alpha_mix =  0.700 |ddv_scf|^2 =  8.488E-16

      iter #   9 total cpu time :   479.3 secs   av.it.:  13.0
      thresh= 2.913E-09 alpha_mix =  0.700 |ddv_scf|^2 =  8.786E-16

      iter #  10 total cpu time :   481.1 secs   av.it.:  12.5
      thresh= 2.964E-09 alpha_mix =  0.700 |ddv_scf|^2 =  2.317E-18

      iter #  11 total cpu time :   483.1 secs   av.it.:  14.9
      thresh= 1.522E-10 alpha_mix =  0.700 |ddv_scf|^2 =  2.709E-19

      iter #  12 total cpu time :   485.2 secs   av.it.:  15.0
      thresh= 5.205E-11 alpha_mix =  0.700 |ddv_scf|^2 =  1.912E-19

      iter #  13 total cpu time :   487.1 secs   av.it.:  13.0
      thresh= 4.372E-11 alpha_mix =  0.700 |ddv_scf|^2 =  2.589E-19

      iter #  14 total cpu time :   488.8 secs   av.it.:  12.4
      thresh= 5.089E-11 alpha_mix =  0.700 |ddv_scf|^2 =  4.963E-21

      iter #  15 total cpu time :   490.8 secs   av.it.:  14.5
      thresh= 7.045E-12 alpha_mix =  0.700 |ddv_scf|^2 =  5.177E-22

     End of self-consistent calculation

     Convergence has been achieved 


     Representation #   8 mode #   8

     Self-consistent Calculation

      iter #   1 total cpu time :   493.0 secs   av.it.:   5.9
      thresh= 1.000E-02 alpha_mix =  0.700 |ddv_scf|^2 =  2.046E-08

      iter #   2 total cpu time :   496.7 secs   av.it.:  15.0
      thresh= 1.430E-05 alpha_mix =  0.700 |ddv_scf|^2 =  2.953E-09

      iter #   3 total cpu time :   512.4 secs   av.it.:  15.0
      thresh= 5.434E-06 alpha_mix =  0.700 |ddv_scf|^2 =  5.422E-10

      iter #   4 total cpu time :   514.3 secs   av.it.:  13.3
      thresh= 2.329E-06 alpha_mix =  0.700 |ddv_scf|^2 =  7.563E-10

      iter #   5 total cpu time :   516.0 secs   av.it.:  12.1
      thresh= 2.750E-06 alpha_mix =  0.700 |ddv_scf|^2 =  9.757E-12

      iter #   6 total cpu time :   518.0 secs   av.it.:  13.9
      thresh= 3.124E-07 alpha_mix =  0.700 |ddv_scf|^2 =  2.064E-11

      iter #   7 total cpu time :   519.8 secs   av.it.:  12.9
      thresh= 4.543E-07 alpha_mix =  0.700 |ddv_scf|^2 =  1.088E-12

      iter #   8 total cpu time :   521.8 secs   av.it.:  13.9
      thresh= 1.043E-07 alpha_mix =  0.700 |ddv_scf|^2 =  1.165E-14

      iter #   9 total cpu time :   523.9 secs   av.it.:  15.6
      thresh= 1.079E-08 alpha_mix =  0.700 |ddv_scf|^2 =  5.582E-15

      iter #  10 total cpu time :   525.9 secs   av.it.:  14.4
      thresh= 7.471E-09 alpha_mix =  0.700 |ddv_scf|^2 =  1.070E-14

      iter #  11 total cpu time :   527.6 secs   av.it.:  11.0
      thresh= 1.035E-08 alpha_mix =  0.700 |ddv_scf|^2 =  5.321E-16

      iter #  12 total cpu time :   529.5 secs   av.it.:  13.9
      thresh= 2.307E-09 alpha_mix =  0.700 |ddv_scf|^2 =  4.189E-17

      iter #  13 total cpu time :   531.4 secs   av.it.:  13.5
      thresh= 6.472E-10 alpha_mix =  0.700 |ddv_scf|^2 =  7.125E-17

      iter #  14 total cpu time :   533.3 secs   av.it.:  13.0
      thresh= 8.441E-10 alpha_mix =  0.700 |ddv_scf|^2 =  6.368E-19

      iter #  15 total cpu time :   535.3 secs   av.it.:  14.8
      thresh= 7.980E-11 alpha_mix =  0.700 |ddv_scf|^2 =  8.518E-20

      iter #  16 total cpu time :   537.4 secs   av.it.:  15.0
      thresh= 2.919E-11 alpha_mix =  0.700 |ddv_scf|^2 =  2.014E-19

      iter #  17 total cpu time :   540.7 secs   av.it.:  12.5
      thresh= 4.488E-11 alpha_mix =  0.700 |ddv_scf|^2 =  1.898E-19

      iter #  18 total cpu time :   555.9 secs   av.it.:  12.9
      thresh= 4.356E-11 alpha_mix =  0.700 |ddv_scf|^2 =  3.904E-21

      iter #  19 total cpu time :   559.2 secs   av.it.:  14.0
      thresh= 6.248E-12 alpha_mix =  0.700 |ddv_scf|^2 =  1.911E-21

      iter #  20 total cpu time :   561.1 secs   av.it.:  13.2
      thresh= 4.371E-12 alpha_mix =  0.700 |ddv_scf|^2 =  4.924E-22

     End of self-consistent calculation

     Convergence has been achieved 


     Representation #   9 mode #   9

     Self-consistent Calculation

      iter #   1 total cpu time :   562.3 secs   av.it.:   6.3
      thresh= 1.000E-02 alpha_mix =  0.700 |ddv_scf|^2 =  7.927E-06

      iter #   2 total cpu time :   564.2 secs   av.it.:  13.0
      thresh= 2.815E-04 alpha_mix =  0.700 |ddv_scf|^2 =  9.744E-05

      iter #   3 total cpu time :   565.8 secs   av.it.:  10.9
      thresh= 9.871E-04 alpha_mix =  0.700 |ddv_scf|^2 =  3.240E-06

      iter #   4 total cpu time :   567.5 secs   av.it.:  11.0
      thresh= 1.800E-04 alpha_mix =  0.700 |ddv_scf|^2 =  1.088E-07

      iter #   5 total cpu time :   569.2 secs   av.it.:  12.1
      thresh= 3.298E-05 alpha_mix =  0.700 |ddv_scf|^2 =  3.204E-09

      iter #   6 total cpu time :   571.0 secs   av.it.:  12.1
      thresh= 5.660E-06 alpha_mix =  0.700 |ddv_scf|^2 =  9.834E-10

      iter #   7 total cpu time :   572.8 secs   av.it.:  12.9
      thresh= 3.136E-06 alpha_mix =  0.700 |ddv_scf|^2 =  5.367E-10

      iter #   8 total cpu time :   574.7 secs   av.it.:  12.8
      thresh= 2.317E-06 alpha_mix =  0.700 |ddv_scf|^2 =  3.721E-12

      iter #   9 total cpu time :   576.6 secs   av.it.:  13.7
      thresh= 1.929E-07 alpha_mix =  0.700 |ddv_scf|^2 =  5.001E-12

      iter #  10 total cpu time :   578.4 secs   av.it.:  12.4
      thresh= 2.236E-07 alpha_mix =  0.700 |ddv_scf|^2 =  2.805E-14

      iter #  11 total cpu time :   580.3 secs   av.it.:  13.2
      thresh= 1.675E-08 alpha_mix =  0.700 |ddv_scf|^2 =  6.762E-16

      iter #  12 total cpu time :   582.4 secs   av.it.:  14.0
      thresh= 2.600E-09 alpha_mix =  0.700 |ddv_scf|^2 =  3.492E-16

      iter #  13 total cpu time :   584.3 secs   av.it.:  13.0
      thresh= 1.869E-09 alpha_mix =  0.700 |ddv_scf|^2 =  5.473E-17

      iter #  14 total cpu time :   586.1 secs   av.it.:  13.0
      thresh= 7.398E-10 alpha_mix =  0.700 |ddv_scf|^2 =  1.275E-17

      iter #  15 total cpu time :   587.9 secs   av.it.:  12.7
      thresh= 3.571E-10 alpha_mix =  0.700 |ddv_scf|^2 =  1.809E-19

      iter #  16 total cpu time :   589.9 secs   av.it.:  14.0
      thresh= 4.253E-11 alpha_mix =  0.700 |ddv_scf|^2 =  1.343E-19

      iter #  17 total cpu time :   591.8 secs   av.it.:  13.1
      thresh= 3.665E-11 alpha_mix =  0.700 |ddv_scf|^2 =  3.770E-21

      iter #  18 total cpu time :   593.7 secs   av.it.:  12.8
      thresh= 6.140E-12 alpha_mix =  0.700 |ddv_scf|^2 =  3.392E-22

     End of self-consistent calculation

     Convergence has been achieved 


     Representation #  10 mode #  10

     Self-consistent Calculation

      iter #   1 total cpu time :   594.8 secs   av.it.:   5.9
      thresh= 1.000E-02 alpha_mix =  0.700 |ddv_scf|^2 =  2.043E-08

      iter #   2 total cpu time :   596.9 secs   av.it.:  14.9
      thresh= 1.429E-05 alpha_mix =  0.700 |ddv_scf|^2 =  2.890E-09

      iter #   3 total cpu time :   599.0 secs   av.it.:  14.9
      thresh= 5.376E-06 alpha_mix =  0.700 |ddv_scf|^2 =  1.107E-10

      iter #   4 total cpu time :   601.0 secs   av.it.:  14.9
      thresh= 1.052E-06 alpha_mix =  0.700 |ddv_scf|^2 =  4.480E-12

      iter #   5 total cpu time :   603.0 secs   av.it.:  14.4
      thresh= 2.117E-07 alpha_mix =  0.700 |ddv_scf|^2 =  8.665E-13

      iter #   6 total cpu time :   604.8 secs   av.it.:  13.0
      thresh= 9.308E-08 alpha_mix =  0.700 |ddv_scf|^2 =  9.499E-13

      iter #   7 total cpu time :   606.7 secs   av.it.:  13.0
      thresh= 9.746E-08 alpha_mix =  0.700 |ddv_scf|^2 =  4.666E-14

      iter #   8 total cpu time :   608.7 secs   av.it.:  14.4
      thresh= 2.160E-08 alpha_mix =  0.700 |ddv_scf|^2 =  8.227E-16

      iter #   9 total cpu time :   610.5 secs   av.it.:  13.0
      thresh= 2.868E-09 alpha_mix =  0.700 |ddv_scf|^2 =  6.290E-16

      iter #  10 total cpu time :   612.3 secs   av.it.:  12.7
      thresh= 2.508E-09 alpha_mix =  0.700 |ddv_scf|^2 =  2.743E-18

      iter #  11 total cpu time :   614.3 secs   av.it.:  14.0
      thresh= 1.656E-10 alpha_mix =  0.700 |ddv_scf|^2 =  2.231E-19

      iter #  12 total cpu time :   616.3 secs   av.it.:  14.9
      thresh= 4.723E-11 alpha_mix =  0.700 |ddv_scf|^2 =  3.412E-20

      iter #  13 total cpu time :   618.4 secs   av.it.:  14.9
      thresh= 1.847E-11 alpha_mix =  0.700 |ddv_scf|^2 =  4.167E-20

      iter #  14 total cpu time :   620.2 secs   av.it.:  12.9
      thresh= 2.041E-11 alpha_mix =  0.700 |ddv_scf|^2 =  4.505E-20

      iter #  15 total cpu time :   622.1 secs   av.it.:  12.4
      thresh= 2.122E-11 alpha_mix =  0.700 |ddv_scf|^2 =  3.163E-22

     End of self-consistent calculation

     Convergence has been achieved 


     Representation #  11 mode #  11

     Self-consistent Calculation

      iter #   1 total cpu time :   623.2 secs   av.it.:   5.9
      thresh= 1.000E-02 alpha_mix =  0.700 |ddv_scf|^2 =  2.044E-08

      iter #   2 total cpu time :   625.3 secs   av.it.:  15.0
      thresh= 1.430E-05 alpha_mix =  0.700 |ddv_scf|^2 =  2.945E-09

      iter #   3 total cpu time :   627.4 secs   av.it.:  15.0
      thresh= 5.427E-06 alpha_mix =  0.700 |ddv_scf|^2 =  5.393E-10

      iter #   4 total cpu time :   629.3 secs   av.it.:  13.3
      thresh= 2.322E-06 alpha_mix =  0.700 |ddv_scf|^2 =  7.614E-10

      iter #   5 total cpu time :   631.6 secs   av.it.:  12.1
      thresh= 2.759E-06 alpha_mix =  0.700 |ddv_scf|^2 =  9.043E-12

      iter #   6 total cpu time :   634.0 secs   av.it.:  13.9
      thresh= 3.007E-07 alpha_mix =  0.700 |ddv_scf|^2 =  1.936E-11

      iter #   7 total cpu time :   644.6 secs   av.it.:  12.9
      thresh= 4.400E-07 alpha_mix =  0.700 |ddv_scf|^2 =  9.850E-13

      iter #   8 total cpu time :   646.6 secs   av.it.:  13.7
      thresh= 9.925E-08 alpha_mix =  0.700 |ddv_scf|^2 =  1.147E-14

      iter #   9 total cpu time :   648.7 secs   av.it.:  15.6
      thresh= 1.071E-08 alpha_mix =  0.700 |ddv_scf|^2 =  5.468E-15

      iter #  10 total cpu time :   650.7 secs   av.it.:  14.4
      thresh= 7.395E-09 alpha_mix =  0.700 |ddv_scf|^2 =  1.042E-14

      iter #  11 total cpu time :   652.4 secs   av.it.:  11.2
      thresh= 1.021E-08 alpha_mix =  0.700 |ddv_scf|^2 =  5.506E-16

      iter #  12 total cpu time :   654.3 secs   av.it.:  13.9
      thresh= 2.347E-09 alpha_mix =  0.700 |ddv_scf|^2 =  4.913E-17

      iter #  13 total cpu time :   656.2 secs   av.it.:  13.1
      thresh= 7.009E-10 alpha_mix =  0.700 |ddv_scf|^2 =  5.944E-17

      iter #  14 total cpu time :   658.1 secs   av.it.:  13.0
      thresh= 7.710E-10 alpha_mix =  0.700 |ddv_scf|^2 =  6.347E-19

      iter #  15 total cpu time :   660.1 secs   av.it.:  14.8
      thresh= 7.967E-11 alpha_mix =  0.700 |ddv_scf|^2 =  9.336E-20

      iter #  16 total cpu time :   662.2 secs   av.it.:  15.0
      thresh= 3.055E-11 alpha_mix =  0.700 |ddv_scf|^2 =  2.100E-19

      iter #  17 total cpu time :   664.0 secs   av.it.:  12.5
      thresh= 4.583E-11 alpha_mix =  0.700 |ddv_scf|^2 =  2.044E-19

      iter #  18 total cpu time :   665.9 secs   av.it.:  13.0
      thresh= 4.521E-11 alpha_mix =  0.700 |ddv_scf|^2 =  4.703E-21

      iter #  19 total cpu time :   667.8 secs   av.it.:  14.0
      thresh= 6.858E-12 alpha_mix =  0.700 |ddv_scf|^2 =  2.437E-21

      iter #  20 total cpu time :   669.7 secs   av.it.:  13.1
      thresh= 4.937E-12 alpha_mix =  0.700 |ddv_scf|^2 =  4.385E-22

     End of self-consistent calculation

     Convergence has been achieved 


     Representation #  12 mode #  12

     Self-consistent Calculation

      iter #   1 total cpu time :   671.0 secs   av.it.:   6.3
      thresh= 1.000E-02 alpha_mix =  0.700 |ddv_scf|^2 =  7.839E-06

      iter #   2 total cpu time :   672.9 secs   av.it.:  13.0
      thresh= 2.800E-04 alpha_mix =  0.700 |ddv_scf|^2 =  9.713E-05

      iter #   3 total cpu time :   674.5 secs   av.it.:  10.9
      thresh= 9.855E-04 alpha_mix =  0.700 |ddv_scf|^2 =  3.151E-06

      iter #   4 total cpu time :   676.1 secs   av.it.:  11.0
      thresh= 1.775E-04 alpha_mix =  0.700 |ddv_scf|^2 =  1.001E-07

      iter #   5 total cpu time :   677.9 secs   av.it.:  12.2
      thresh= 3.163E-05 alpha_mix =  0.700 |ddv_scf|^2 =  9.866E-10

      iter #   6 total cpu time :   679.8 secs   av.it.:  13.0
      thresh= 3.141E-06 alpha_mix =  0.700 |ddv_scf|^2 =  4.772E-10

      iter #   7 total cpu time :   681.6 secs   av.it.:  13.0
      thresh= 2.185E-06 alpha_mix =  0.700 |ddv_scf|^2 =  7.420E-11

      iter #   8 total cpu time :   683.5 secs   av.it.:  12.9
      thresh= 8.614E-07 alpha_mix =  0.700 |ddv_scf|^2 =  1.334E-12

      iter #   9 total cpu time :   685.4 secs   av.it.:  13.0
      thresh= 1.155E-07 alpha_mix =  0.700 |ddv_scf|^2 =  2.661E-14

      iter #  10 total cpu time :   687.3 secs   av.it.:  13.0
      thresh= 1.631E-08 alpha_mix =  0.700 |ddv_scf|^2 =  2.003E-15

      iter #  11 total cpu time :   689.3 secs   av.it.:  14.0
      thresh= 4.475E-09 alpha_mix =  0.700 |ddv_scf|^2 =  4.580E-16

      iter #  12 total cpu time :   691.3 secs   av.it.:  14.1
      thresh= 2.140E-09 alpha_mix =  0.700 |ddv_scf|^2 =  1.645E-16

      iter #  13 total cpu time :   693.1 secs   av.it.:  12.3
      thresh= 1.282E-09 alpha_mix =  0.700 |ddv_scf|^2 =  2.638E-17

      iter #  14 total cpu time :   695.0 secs   av.it.:  13.9
      thresh= 5.137E-10 alpha_mix =  0.700 |ddv_scf|^2 =  2.672E-17

      iter #  15 total cpu time :   698.1 secs   av.it.:  13.1
      thresh= 5.170E-10 alpha_mix =  0.700 |ddv_scf|^2 =  3.499E-17

      iter #  16 total cpu time :   700.0 secs   av.it.:  11.9
      thresh= 5.915E-10 alpha_mix =  0.700 |ddv_scf|^2 =  2.015E-19

      iter #  17 total cpu time :   704.9 secs   av.it.:  13.0
      thresh= 4.489E-11 alpha_mix =  0.700 |ddv_scf|^2 =  1.632E-19

      iter #  18 total cpu time :   718.7 secs   av.it.:  11.5
      thresh= 4.039E-11 alpha_mix =  0.700 |ddv_scf|^2 =  1.271E-21

      iter #  19 total cpu time :   720.7 secs   av.it.:  14.2
      thresh= 3.565E-12 alpha_mix =  0.700 |ddv_scf|^2 =  3.170E-21

      iter #  20 total cpu time :   722.5 secs   av.it.:  12.3
      thresh= 5.631E-12 alpha_mix =  0.700 |ddv_scf|^2 =  6.595E-23

     End of self-consistent calculation

     Convergence has been achieved 
 
     Number of q in the star =    1
     List of q in the star:
          1   0.000000000   0.000000000   0.000000000

          Dielectric constant in cartesian axis 

          (       3.447177977      -0.000000002       0.000000017 )
          (      -0.000000002       3.447177988       0.000000017 )
          (       0.000000005       0.000000003       1.425135641 )

          Effective charges (d Force / dE) in cartesian axis

           atom      1   In 
      Ex  (        2.46141        0.00000       -0.00000 )
      Ey  (        0.00000        2.46141       -0.00000 )
      Ez  (       -0.00000        0.00000        0.23902 )
           atom      2   In 
      Ex  (        2.46141        0.00000       -0.00000 )
      Ey  (       -0.00000        2.46141       -0.00000 )
      Ez  (       -0.00000        0.00000        0.23902 )
           atom      3   Se 
      Ex  (       -2.46245       -0.00000       -0.00000 )
      Ey  (       -0.00000       -2.46245       -0.00000 )
      Ez  (       -0.00000        0.00000       -0.23869 )
           atom      4   Se 
      Ex  (       -2.46246       -0.00000       -0.00000 )
      Ey  (       -0.00000       -2.46246       -0.00000 )
      Ez  (       -0.00000       -0.00000       -0.23867 )

     Diagonalizing the dynamical matrix

     q = (    0.000000000   0.000000000   0.000000000 ) 

 **************************************************************************
     freq (    1) =       0.162073 [THz] =       5.406172 [cm-1]
     freq (    2) =       0.162464 [THz] =       5.419205 [cm-1]
     freq (    3) =       0.167619 [THz] =       5.591157 [cm-1]
     freq (    4) =       1.101155 [THz] =      36.730582 [cm-1]
     freq (    5) =       1.101212 [THz] =      36.732469 [cm-1]
     freq (    6) =       2.997701 [THz] =      99.992543 [cm-1]
     freq (    7) =       4.810914 [THz] =     160.474829 [cm-1]
     freq (    8) =       4.810923 [THz] =     160.475125 [cm-1]
     freq (    9) =       4.923998 [THz] =     164.246879 [cm-1]
     freq (   10) =       4.924013 [THz] =     164.247384 [cm-1]
     freq (   11) =       5.645536 [THz] =     188.314801 [cm-1]
     freq (   12) =       6.456268 [THz] =     215.357908 [cm-1]
 **************************************************************************

     Mode symmetry, C_1 (1)     point group:

     freq (   1-   1) =          5.4  [cm-1]   --> A               I+R
     freq (   2-   2) =          5.4  [cm-1]   --> A               I+R
     freq (   3-   3) =          5.6  [cm-1]   --> A               I+R
     freq (   4-   4) =         36.7  [cm-1]   --> A               I+R
     freq (   5-   5) =         36.7  [cm-1]   --> A               I+R
     freq (   6-   6) =        100.0  [cm-1]   --> A               I+R
     freq (   7-   7) =        160.5  [cm-1]   --> A               I+R
     freq (   8-   8) =        160.5  [cm-1]   --> A               I+R
     freq (   9-   9) =        164.2  [cm-1]   --> A               I+R
     freq (  10-  10) =        164.2  [cm-1]   --> A               I+R
     freq (  11-  11) =        188.3  [cm-1]   --> A               I+R
     freq (  12-  12) =        215.4  [cm-1]   --> A               I+R
 
     PHONON       :  11m25.82s CPU  12m 2.80s WALL

     INITIALIZATION: 
     phq_setup    :      0.02s CPU      0.05s WALL (       1 calls)
     phq_init     :      0.14s CPU      0.16s WALL (       1 calls)
 
     phq_init     :      0.14s CPU      0.16s WALL (       1 calls)
     init_vloc    :      0.02s CPU      0.02s WALL (       1 calls)
     init_us_1    :      0.00s CPU      0.00s WALL (       1 calls)
 
     DIELECTRIC CONSTANT AND EFFECTIVE CHARGES:
     solve_e      :    148.52s CPU    158.23s WALL (       1 calls)
     dielec       :      0.01s CPU      0.03s WALL (       1 calls)
     zstar_eu     :      1.23s CPU      1.29s WALL (       1 calls)
 
     DYNAMICAL MATRIX:
     dynmat0      :      0.08s CPU      0.09s WALL (       1 calls)
     phqscf       :    534.77s CPU    561.23s WALL (       1 calls)
     dynmatrix    :      0.08s CPU      0.09s WALL (       1 calls)
 
     phqscf       :    534.77s CPU    561.23s WALL (       1 calls)
     solve_linter :    534.47s CPU    560.46s WALL (      12 calls)
     drhodv       :      0.28s CPU      0.31s WALL (      12 calls)
 
     dynmat0      :      0.08s CPU      0.09s WALL (       1 calls)
     dynmat_us    :      0.07s CPU      0.07s WALL (       1 calls)
     d2ionq       :      0.00s CPU      0.00s WALL (       1 calls)
 
     dynmat_us    :      0.07s CPU      0.07s WALL (       1 calls)
 
     phqscf       :    534.77s CPU    561.23s WALL (       1 calls)
     solve_linter :    534.47s CPU    560.46s WALL (      12 calls)
 
     solve_linter :    534.47s CPU    560.46s WALL (      12 calls)
     dvqpsi_us    :      2.43s CPU      2.50s WALL (     240 calls)
     ortho        :      1.25s CPU      1.29s WALL (    3090 calls)
     cgsolve      :    470.14s CPU    478.74s WALL (    3090 calls)
     incdrhoscf   :     37.72s CPU     38.89s WALL (    3060 calls)
     vpsifft      :     20.06s CPU     20.96s WALL (    2250 calls)
     dv_of_drho   :      2.27s CPU      2.35s WALL (     306 calls)
     mix_pot      :      7.85s CPU      9.83s WALL (     260 calls)
     psymdvscf    :     11.40s CPU     11.50s WALL (     237 calls)
 
     dvqpsi_us    :      2.43s CPU      2.50s WALL (     240 calls)
     dvqpsi_us_on :      0.26s CPU      0.26s WALL (     240 calls)
 
     cgsolve      :    470.14s CPU    478.74s WALL (    3090 calls)
     ch_psi       :    449.31s CPU    457.57s WALL (   53713 calls)
 
     ch_psi       :    449.31s CPU    457.57s WALL (   53713 calls)
     h_psi        :    403.46s CPU    411.11s WALL (   53713 calls)
     last         :     38.82s CPU     39.33s WALL (   53713 calls)
 
     h_psi        :    403.46s CPU    411.11s WALL (   53713 calls)
     add_vuspsi   :     16.51s CPU     16.76s WALL (   53713 calls)
 
     incdrhoscf   :     37.72s CPU     38.89s WALL (    3060 calls)
 
 
      General routines
     calbec       :     38.78s CPU     39.43s WALL (  108036 calls)
     fft          :      1.33s CPU      1.42s WALL (    3380 calls)
     ffts         :      0.15s CPU      0.17s WALL (     384 calls)
     fftw         :    388.13s CPU    396.32s WALL ( 1823880 calls)
     davcio       :      1.78s CPU      4.29s WALL (   15257 calls)
     write_rec    :      0.40s CPU     20.75s WALL (     272 calls)
 
 
     PHONON       :  11m25.82s CPU  12m 2.80s WALL

 
   This run was terminated on:  13:27:35  23Nov2021            

=------------------------------------------------------------------------------=
   JOB DONE.
=------------------------------------------------------------------------------=
TACC:  Shutdown complete. Exiting. 
