TACC:  Starting up job 3814513 
TACC:  Starting parallel tasks... 

     Program PWSCF v.6.7MaX starts on 23Nov2021 at 13:15:18 

     This program is part of the open-source Quantum ESPRESSO suite
     for quantum simulation of materials; please cite
         "P. Giannozzi et al., J. Phys.:Condens. Matter 21 395502 (2009);
         "P. Giannozzi et al., J. Phys.:Condens. Matter 29 465901 (2017);
          URL http://www.quantum-espresso.org", 
     in publications or presentations arising from this work. More details at
     http://www.quantum-espresso.org/quote

     Parallel version (MPI), running on   224 processors

     MPI processes distributed on     4 nodes
     K-points division:     npool     =       8
     R & G space division:  proc/nbgrp/npool/nimage =      28
     Waiting for input...
     Reading input from standard input
Warning: card &CELL ignored
Warning: card    CELL_DOFREE='2DXY' ignored
Warning: card / ignored

     Current dimensions of program PWSCF are:
     Max number of different atomic species (ntypx) = 10
     Max number of k-points (npk) =  40000
     Max angular momentum in pseudopotentials (lmaxx) =  3
     Message from routine read_pp_mesh:
     mesh size missing, using the one in header
     Message from routine read_pp_mesh:
     mesh size missing, using the one in header

     Subspace diagonalization in iterative solution of the eigenvalue problem:
     a serial algorithm will be used

 
     Parallelization info
     --------------------
     sticks:   dense  smooth     PW     G-vecs:    dense   smooth      PW
     Min          41      41     12                 6735     6735    1102
     Max          42      42     13                 6752     6752    1125
     Sum        1159    1159    349               188879   188879   31191
 


     bravais-lattice index     =            4
     lattice parameter (alat)  =       7.7271  a.u.
     unit-cell volume          =    2383.8404 (a.u.)^3
     number of atoms/cell      =            4
     number of atomic types    =            2
     number of electrons       =        38.00
     number of Kohn-Sham states=           19
     kinetic-energy cutoff     =      70.0000  Ry
     charge density cutoff     =     280.0000  Ry
     scf convergence threshold =      1.0E-12
     mixing beta               =       0.7000
     number of iterations used =            8  plain     mixing
     Exchange-correlation= PBE
                           (   1   4   3   4   0   0   0)

     celldm(1)=   7.727128  celldm(2)=   0.000000  celldm(3)=   5.966124
     celldm(4)=   0.000000  celldm(5)=   0.000000  celldm(6)=   0.000000

     crystal axes: (cart. coord. in units of alat)
               a(1) = (   1.000000   0.000000   0.000000 )  
               a(2) = (  -0.500000   0.866025   0.000000 )  
               a(3) = (   0.000000   0.000000   5.966124 )  

     reciprocal axes: (cart. coord. in units 2 pi/alat)
               b(1) = (  1.000000  0.577350  0.000000 )  
               b(2) = (  0.000000  1.154701  0.000000 )  
               b(3) = (  0.000000  0.000000  0.167613 )  


     PseudoPot. # 1 for In read from file:
     ./In_ONCV_PBE-1.2.upf
     MD5 check sum: 2123f823f6143602c63cd302e3a0bdd6
     Pseudo is Norm-conserving, Zval = 13.0
     Generated using ONCVPSP code by D. R. Hamann
     Using radial grid of  602 points,  6 beta functions with: 
                l(1) =   0
                l(2) =   0
                l(3) =   1
                l(4) =   1
                l(5) =   2
                l(6) =   2

     PseudoPot. # 2 for Se read from file:
     ./Se_ONCV_PBE-1.2.upf
     MD5 check sum: e78e48a4f5d8ce1f8dc76ec1271f249c
     Pseudo is Norm-conserving, Zval =  6.0
     Generated using ONCVPSP code by D. R. Hamann
     Using radial grid of  602 points,  6 beta functions with: 
                l(1) =   0
                l(2) =   0
                l(3) =   1
                l(4) =   1
                l(5) =   2
                l(6) =   2

     atomic species   valence    mass     pseudopotential
        In            13.00   114.81800     In( 1.00)
        Se             6.00    78.96000     Se( 1.00)

     No symmetry found


                                    s                        frac. trans.

      isym =  1     identity                                     

 cryst.   s( 1) = (     1          0          0      )
                  (     0          1          0      )
                  (     0          0          1      )

 cart.    s( 1) = (  1.0000000  0.0000000  0.0000000 )
                  (  0.0000000  1.0000000  0.0000000 )
                  (  0.0000000  0.0000000  1.0000000 )


     point group C_1 (1)    
     there are  1 classes
     the character table:

       E    
A      1.00

     the symmetry operations in each class and the name of the first element:

     E        1
          identity                                               

   Cartesian axes

     site n.     atom                  positions (alat units)
         1           In  tau(   1) = (  -0.0000000   0.5773503   1.0573362  )
         2           In  tau(   2) = (  -0.0000000   0.5773503   1.7491693  )
         3           Se  tau(   3) = (   0.5000000   0.2886751   0.7452705  )
         4           Se  tau(   4) = (   0.5000000   0.2886751   2.0612351  )

   Crystallographic axes

     site n.     atom                  positions (cryst. coord.)
         1           In  tau(   1) = (  0.3333333  0.6666667  0.1772233  )
         2           In  tau(   2) = (  0.3333333  0.6666667  0.2931835  )
         3           Se  tau(   3) = (  0.6666667  0.3333333  0.1249170  )
         4           Se  tau(   4) = (  0.6666667  0.3333333  0.3454898  )

     number of k points=    74
                       cart. coord. in units 2pi/alat
        k(    1) = (   0.0000000   0.0000000   0.0000000), wk =   0.0138889
        k(    2) = (   0.0000000   0.0962250   0.0000000), wk =   0.0277778
        k(    3) = (   0.0000000   0.1924501   0.0000000), wk =   0.0277778
        k(    4) = (   0.0000000   0.2886751   0.0000000), wk =   0.0277778
        k(    5) = (   0.0000000   0.3849002   0.0000000), wk =   0.0277778
        k(    6) = (   0.0000000   0.4811252   0.0000000), wk =   0.0277778
        k(    7) = (   0.0000000  -0.5773503   0.0000000), wk =   0.0138889
        k(    8) = (   0.0833333   0.0481125   0.0000000), wk =   0.0277778
        k(    9) = (   0.0833333   0.1443376   0.0000000), wk =   0.0277778
        k(   10) = (   0.0833333   0.2405626   0.0000000), wk =   0.0277778
        k(   11) = (   0.0833333   0.3367877   0.0000000), wk =   0.0277778
        k(   12) = (   0.0833333   0.4330127   0.0000000), wk =   0.0277778
        k(   13) = (   0.0833333   0.5292377   0.0000000), wk =   0.0277778
        k(   14) = (   0.0833333  -0.5292377   0.0000000), wk =   0.0277778
        k(   15) = (   0.0833333  -0.4330127   0.0000000), wk =   0.0277778
        k(   16) = (   0.0833333  -0.3367877   0.0000000), wk =   0.0277778
        k(   17) = (   0.0833333  -0.2405626   0.0000000), wk =   0.0277778
        k(   18) = (   0.0833333  -0.1443376   0.0000000), wk =   0.0277778
        k(   19) = (   0.0833333  -0.0481125   0.0000000), wk =   0.0277778
        k(   20) = (   0.1666667   0.0962250   0.0000000), wk =   0.0277778
        k(   21) = (   0.1666667   0.1924501   0.0000000), wk =   0.0277778
        k(   22) = (   0.1666667   0.2886751   0.0000000), wk =   0.0277778
        k(   23) = (   0.1666667   0.3849002   0.0000000), wk =   0.0277778
        k(   24) = (   0.1666667   0.4811252   0.0000000), wk =   0.0277778
        k(   25) = (   0.1666667   0.5773503   0.0000000), wk =   0.0277778
        k(   26) = (   0.1666667  -0.4811252   0.0000000), wk =   0.0277778
        k(   27) = (   0.1666667  -0.3849002   0.0000000), wk =   0.0277778
        k(   28) = (   0.1666667  -0.2886751   0.0000000), wk =   0.0277778
        k(   29) = (   0.1666667  -0.1924501   0.0000000), wk =   0.0277778
        k(   30) = (   0.1666667  -0.0962250   0.0000000), wk =   0.0277778
        k(   31) = (   0.1666667  -0.0000000   0.0000000), wk =   0.0277778
        k(   32) = (   0.2500000   0.1443376   0.0000000), wk =   0.0277778
        k(   33) = (   0.2500000   0.2405626   0.0000000), wk =   0.0277778
        k(   34) = (   0.2500000   0.3367877   0.0000000), wk =   0.0277778
        k(   35) = (   0.2500000   0.4330127   0.0000000), wk =   0.0277778
        k(   36) = (   0.2500000   0.5292377   0.0000000), wk =   0.0277778
        k(   37) = (   0.2500000   0.6254628   0.0000000), wk =   0.0277778
        k(   38) = (   0.2500000  -0.4330127   0.0000000), wk =   0.0277778
        k(   39) = (   0.2500000  -0.3367877   0.0000000), wk =   0.0277778
        k(   40) = (   0.2500000  -0.2405626   0.0000000), wk =   0.0277778
        k(   41) = (   0.2500000  -0.1443376   0.0000000), wk =   0.0277778
        k(   42) = (   0.2500000  -0.0481125   0.0000000), wk =   0.0277778
        k(   43) = (   0.2500000   0.0481125   0.0000000), wk =   0.0277778
        k(   44) = (   0.3333333   0.1924501   0.0000000), wk =   0.0277778
        k(   45) = (   0.3333333   0.2886751   0.0000000), wk =   0.0277778
        k(   46) = (   0.3333333   0.3849002   0.0000000), wk =   0.0277778
        k(   47) = (   0.3333333   0.4811252   0.0000000), wk =   0.0277778
        k(   48) = (   0.3333333   0.5773503   0.0000000), wk =   0.0277778
        k(   49) = (   0.3333333   0.6735753   0.0000000), wk =   0.0277778
        k(   50) = (   0.3333333  -0.3849002   0.0000000), wk =   0.0277778
        k(   51) = (   0.3333333  -0.2886751   0.0000000), wk =   0.0277778
        k(   52) = (   0.3333333  -0.1924501   0.0000000), wk =   0.0277778
        k(   53) = (   0.3333333  -0.0962250   0.0000000), wk =   0.0277778
        k(   54) = (   0.3333333   0.0000000   0.0000000), wk =   0.0277778
        k(   55) = (   0.3333333   0.0962250   0.0000000), wk =   0.0277778
        k(   56) = (   0.4166667   0.2405626   0.0000000), wk =   0.0277778
        k(   57) = (   0.4166667   0.3367877   0.0000000), wk =   0.0277778
        k(   58) = (   0.4166667   0.4330127   0.0000000), wk =   0.0277778
        k(   59) = (   0.4166667   0.5292377   0.0000000), wk =   0.0277778
        k(   60) = (   0.4166667   0.6254628   0.0000000), wk =   0.0277778
        k(   61) = (   0.4166667   0.7216878   0.0000000), wk =   0.0277778
        k(   62) = (   0.4166667  -0.3367877   0.0000000), wk =   0.0277778
        k(   63) = (   0.4166667  -0.2405626   0.0000000), wk =   0.0277778
        k(   64) = (   0.4166667  -0.1443376   0.0000000), wk =   0.0277778
        k(   65) = (   0.4166667  -0.0481125   0.0000000), wk =   0.0277778
        k(   66) = (   0.4166667   0.0481125   0.0000000), wk =   0.0277778
        k(   67) = (   0.4166667   0.1443376   0.0000000), wk =   0.0277778
        k(   68) = (  -0.5000000  -0.2886751   0.0000000), wk =   0.0138889
        k(   69) = (  -0.5000000  -0.1924501   0.0000000), wk =   0.0277778
        k(   70) = (  -0.5000000  -0.0962250   0.0000000), wk =   0.0277778
        k(   71) = (  -0.5000000   0.0000000   0.0000000), wk =   0.0277778
        k(   72) = (  -0.5000000   0.0962250   0.0000000), wk =   0.0277778
        k(   73) = (  -0.5000000   0.1924501   0.0000000), wk =   0.0277778
        k(   74) = (  -0.5000000  -0.8660254   0.0000000), wk =   0.0138889

                       cryst. coord.
        k(    1) = (   0.0000000   0.0000000   0.0000000), wk =   0.0138889
        k(    2) = (   0.0000000   0.0833333   0.0000000), wk =   0.0277778
        k(    3) = (   0.0000000   0.1666667   0.0000000), wk =   0.0277778
        k(    4) = (   0.0000000   0.2500000   0.0000000), wk =   0.0277778
        k(    5) = (   0.0000000   0.3333333   0.0000000), wk =   0.0277778
        k(    6) = (   0.0000000   0.4166667   0.0000000), wk =   0.0277778
        k(    7) = (   0.0000000  -0.5000000   0.0000000), wk =   0.0138889
        k(    8) = (   0.0833333   0.0000000   0.0000000), wk =   0.0277778
        k(    9) = (   0.0833333   0.0833333   0.0000000), wk =   0.0277778
        k(   10) = (   0.0833333   0.1666667   0.0000000), wk =   0.0277778
        k(   11) = (   0.0833333   0.2500000   0.0000000), wk =   0.0277778
        k(   12) = (   0.0833333   0.3333333   0.0000000), wk =   0.0277778
        k(   13) = (   0.0833333   0.4166667   0.0000000), wk =   0.0277778
        k(   14) = (   0.0833333  -0.5000000   0.0000000), wk =   0.0277778
        k(   15) = (   0.0833333  -0.4166667   0.0000000), wk =   0.0277778
        k(   16) = (   0.0833333  -0.3333333   0.0000000), wk =   0.0277778
        k(   17) = (   0.0833333  -0.2500000   0.0000000), wk =   0.0277778
        k(   18) = (   0.0833333  -0.1666667   0.0000000), wk =   0.0277778
        k(   19) = (   0.0833333  -0.0833333   0.0000000), wk =   0.0277778
        k(   20) = (   0.1666667   0.0000000   0.0000000), wk =   0.0277778
        k(   21) = (   0.1666667   0.0833333   0.0000000), wk =   0.0277778
        k(   22) = (   0.1666667   0.1666667   0.0000000), wk =   0.0277778
        k(   23) = (   0.1666667   0.2500000   0.0000000), wk =   0.0277778
        k(   24) = (   0.1666667   0.3333333   0.0000000), wk =   0.0277778
        k(   25) = (   0.1666667   0.4166667   0.0000000), wk =   0.0277778
        k(   26) = (   0.1666667  -0.5000000   0.0000000), wk =   0.0277778
        k(   27) = (   0.1666667  -0.4166667   0.0000000), wk =   0.0277778
        k(   28) = (   0.1666667  -0.3333333   0.0000000), wk =   0.0277778
        k(   29) = (   0.1666667  -0.2500000   0.0000000), wk =   0.0277778
        k(   30) = (   0.1666667  -0.1666667   0.0000000), wk =   0.0277778
        k(   31) = (   0.1666667  -0.0833333   0.0000000), wk =   0.0277778
        k(   32) = (   0.2500000   0.0000000   0.0000000), wk =   0.0277778
        k(   33) = (   0.2500000   0.0833333   0.0000000), wk =   0.0277778
        k(   34) = (   0.2500000   0.1666667   0.0000000), wk =   0.0277778
        k(   35) = (   0.2500000   0.2500000   0.0000000), wk =   0.0277778
        k(   36) = (   0.2500000   0.3333333   0.0000000), wk =   0.0277778
        k(   37) = (   0.2500000   0.4166667   0.0000000), wk =   0.0277778
        k(   38) = (   0.2500000  -0.5000000   0.0000000), wk =   0.0277778
        k(   39) = (   0.2500000  -0.4166667   0.0000000), wk =   0.0277778
        k(   40) = (   0.2500000  -0.3333333   0.0000000), wk =   0.0277778
        k(   41) = (   0.2500000  -0.2500000   0.0000000), wk =   0.0277778
        k(   42) = (   0.2500000  -0.1666667   0.0000000), wk =   0.0277778
        k(   43) = (   0.2500000  -0.0833333   0.0000000), wk =   0.0277778
        k(   44) = (   0.3333333   0.0000000   0.0000000), wk =   0.0277778
        k(   45) = (   0.3333333   0.0833333   0.0000000), wk =   0.0277778
        k(   46) = (   0.3333333   0.1666667   0.0000000), wk =   0.0277778
        k(   47) = (   0.3333333   0.2500000   0.0000000), wk =   0.0277778
        k(   48) = (   0.3333333   0.3333333   0.0000000), wk =   0.0277778
        k(   49) = (   0.3333333   0.4166667   0.0000000), wk =   0.0277778
        k(   50) = (   0.3333333  -0.5000000   0.0000000), wk =   0.0277778
        k(   51) = (   0.3333333  -0.4166667   0.0000000), wk =   0.0277778
        k(   52) = (   0.3333333  -0.3333333   0.0000000), wk =   0.0277778
        k(   53) = (   0.3333333  -0.2500000   0.0000000), wk =   0.0277778
        k(   54) = (   0.3333333  -0.1666667   0.0000000), wk =   0.0277778
        k(   55) = (   0.3333333  -0.0833333   0.0000000), wk =   0.0277778
        k(   56) = (   0.4166667   0.0000000   0.0000000), wk =   0.0277778
        k(   57) = (   0.4166667   0.0833333   0.0000000), wk =   0.0277778
        k(   58) = (   0.4166667   0.1666667   0.0000000), wk =   0.0277778
        k(   59) = (   0.4166667   0.2500000   0.0000000), wk =   0.0277778
        k(   60) = (   0.4166667   0.3333333   0.0000000), wk =   0.0277778
        k(   61) = (   0.4166667   0.4166667   0.0000000), wk =   0.0277778
        k(   62) = (   0.4166667  -0.5000000   0.0000000), wk =   0.0277778
        k(   63) = (   0.4166667  -0.4166667   0.0000000), wk =   0.0277778
        k(   64) = (   0.4166667  -0.3333333   0.0000000), wk =   0.0277778
        k(   65) = (   0.4166667  -0.2500000   0.0000000), wk =   0.0277778
        k(   66) = (   0.4166667  -0.1666667   0.0000000), wk =   0.0277778
        k(   67) = (   0.4166667  -0.0833333   0.0000000), wk =   0.0277778
        k(   68) = (  -0.5000000   0.0000000   0.0000000), wk =   0.0138889
        k(   69) = (  -0.5000000   0.0833333   0.0000000), wk =   0.0277778
        k(   70) = (  -0.5000000   0.1666667   0.0000000), wk =   0.0277778
        k(   71) = (  -0.5000000   0.2500000   0.0000000), wk =   0.0277778
        k(   72) = (  -0.5000000   0.3333333   0.0000000), wk =   0.0277778
        k(   73) = (  -0.5000000   0.4166667   0.0000000), wk =   0.0277778
        k(   74) = (  -0.5000000  -0.5000000   0.0000000), wk =   0.0138889

     Dense  grid:   188879 G-vectors     FFT dimensions: (  45,  45, 250)

     Dynamical RAM for                 wfc:       0.24 MB

     Dynamical RAM for     wfc (w. buffer):       2.69 MB

     Dynamical RAM for           str. fact:       0.21 MB

     Dynamical RAM for           local pot:       0.00 MB

     Dynamical RAM for          nlocal pot:       0.93 MB

     Dynamical RAM for                qrad:       2.69 MB

     Dynamical RAM for          rho,v,vnew:       0.73 MB

     Dynamical RAM for               rhoin:       0.24 MB

     Dynamical RAM for            rho*nmix:       1.65 MB

     Dynamical RAM for           G-vectors:       0.44 MB

     Dynamical RAM for          h,s,v(r/c):       0.07 MB

     Dynamical RAM for          <psi|beta>:       0.02 MB

     Dynamical RAM for                 psi:       0.49 MB

     Dynamical RAM for                hpsi:       0.49 MB

     Dynamical RAM for      wfcinit/wfcrot:       0.50 MB

     Estimated static dynamical RAM per process >      10.56 MB

     Estimated max dynamical RAM per process >      11.63 MB

     Estimated total dynamical RAM >       2.54 GB

     Initial potential from superposition of free atoms

     starting charge   37.75498, renormalised to   38.00000

     negative rho (up, down):  5.905E-04 0.000E+00
     Starting wfcs are random

     total cpu time spent up to now is        0.8 secs

     Self-consistent Calculation

     iteration #  1     ecut=    70.00 Ry     beta= 0.70
     Davidson diagonalization with overlap
     ethr =  1.00E-02,  avg # of iterations = 13.4

     Threshold (ethr) on eigenvalues was too large:
     Diagonalizing with lowered threshold

     Davidson diagonalization with overlap
     ethr =  5.69E-04,  avg # of iterations =  2.0

     negative rho (up, down):  7.835E-05 0.000E+00

     total cpu time spent up to now is        2.7 secs

     total energy              =    -247.04007003 Ry
     estimated scf accuracy    <       0.21467314 Ry

     iteration #  2     ecut=    70.00 Ry     beta= 0.70
     Davidson diagonalization with overlap
     ethr =  5.65E-04,  avg # of iterations =  4.6

     negative rho (up, down):  5.779E-05 0.000E+00

     total cpu time spent up to now is        3.3 secs

     total energy              =    -247.00229956 Ry
     estimated scf accuracy    <       0.72630423 Ry

     iteration #  3     ecut=    70.00 Ry     beta= 0.70
     Davidson diagonalization with overlap
     ethr =  5.65E-04,  avg # of iterations =  3.3

     negative rho (up, down):  2.702E-05 0.000E+00

     total cpu time spent up to now is        3.8 secs

     total energy              =    -247.13940673 Ry
     estimated scf accuracy    <       0.03222427 Ry

     iteration #  4     ecut=    70.00 Ry     beta= 0.70
     Davidson diagonalization with overlap
     ethr =  8.48E-05,  avg # of iterations =  2.0

     negative rho (up, down):  3.196E-06 0.000E+00

     total cpu time spent up to now is        4.2 secs

     total energy              =    -247.14408626 Ry
     estimated scf accuracy    <       0.00260791 Ry

     iteration #  5     ecut=    70.00 Ry     beta= 0.70
     Davidson diagonalization with overlap
     ethr =  6.86E-06,  avg # of iterations =  3.9

     negative rho (up, down):  5.865E-07 0.000E+00

     total cpu time spent up to now is        4.6 secs

     total energy              =    -247.14444961 Ry
     estimated scf accuracy    <       0.00137199 Ry

     iteration #  6     ecut=    70.00 Ry     beta= 0.70
     Davidson diagonalization with overlap
     ethr =  3.61E-06,  avg # of iterations =  5.3

     negative rho (up, down):  2.745E-08 0.000E+00

     total cpu time spent up to now is        5.1 secs

     total energy              =    -247.14467143 Ry
     estimated scf accuracy    <       0.00111740 Ry

     iteration #  7     ecut=    70.00 Ry     beta= 0.70
     Davidson diagonalization with overlap
     ethr =  2.94E-06,  avg # of iterations =  4.1

     negative rho (up, down):  2.427E-08 0.000E+00

     total cpu time spent up to now is        5.5 secs

     total energy              =    -247.14477226 Ry
     estimated scf accuracy    <       0.00004956 Ry

     iteration #  8     ecut=    70.00 Ry     beta= 0.70
     Davidson diagonalization with overlap
     ethr =  1.30E-07,  avg # of iterations =  3.4

     total cpu time spent up to now is        5.9 secs

     total energy              =    -247.14478163 Ry
     estimated scf accuracy    <       0.00000220 Ry

     iteration #  9     ecut=    70.00 Ry     beta= 0.70
     Davidson diagonalization with overlap
     ethr =  5.80E-09,  avg # of iterations =  3.7

     total cpu time spent up to now is        6.4 secs

     total energy              =    -247.14478248 Ry
     estimated scf accuracy    <       0.00000030 Ry

     iteration # 10     ecut=    70.00 Ry     beta= 0.70
     Davidson diagonalization with overlap
     ethr =  7.96E-10,  avg # of iterations =  3.1

     total cpu time spent up to now is        6.9 secs

     total energy              =    -247.14478246 Ry
     estimated scf accuracy    <       0.00000022 Ry

     iteration # 11     ecut=    70.00 Ry     beta= 0.70
     Davidson diagonalization with overlap
     ethr =  5.74E-10,  avg # of iterations =  2.1

     total cpu time spent up to now is        7.3 secs

     total energy              =    -247.14478248 Ry
     estimated scf accuracy    <       0.00000002 Ry

     iteration # 12     ecut=    70.00 Ry     beta= 0.70
     Davidson diagonalization with overlap
     ethr =  5.14E-11,  avg # of iterations =  4.8

     total cpu time spent up to now is        7.8 secs

     total energy              =    -247.14478248 Ry
     estimated scf accuracy    <          9.3E-09 Ry

     iteration # 13     ecut=    70.00 Ry     beta= 0.70
     Davidson diagonalization with overlap
     ethr =  2.44E-11,  avg # of iterations =  2.1

     total cpu time spent up to now is        8.2 secs

     total energy              =    -247.14478248 Ry
     estimated scf accuracy    <          7.7E-10 Ry

     iteration # 14     ecut=    70.00 Ry     beta= 0.70
     Davidson diagonalization with overlap
     ethr =  2.03E-12,  avg # of iterations =  5.0

     total cpu time spent up to now is        8.7 secs

     total energy              =    -247.14478248 Ry
     estimated scf accuracy    <          9.5E-10 Ry

     iteration # 15     ecut=    70.00 Ry     beta= 0.70
     Davidson diagonalization with overlap
     ethr =  2.03E-12,  avg # of iterations =  2.0

     total cpu time spent up to now is        9.1 secs

     total energy              =    -247.14478248 Ry
     estimated scf accuracy    <          2.7E-10 Ry

     iteration # 16     ecut=    70.00 Ry     beta= 0.70
     Davidson diagonalization with overlap
     ethr =  7.22E-13,  avg # of iterations =  4.2

     total cpu time spent up to now is        9.5 secs

     total energy              =    -247.14478248 Ry
     estimated scf accuracy    <          4.5E-12 Ry

     iteration # 17     ecut=    70.00 Ry     beta= 0.70
     Davidson diagonalization with overlap
     ethr =  1.00E-13,  avg # of iterations =  2.6

     total cpu time spent up to now is        9.9 secs

     total energy              =    -247.14478248 Ry
     estimated scf accuracy    <          1.8E-11 Ry

     iteration # 18     ecut=    70.00 Ry     beta= 0.70
     Davidson diagonalization with overlap
     ethr =  1.00E-13,  avg # of iterations =  1.2

     total cpu time spent up to now is       10.2 secs

     total energy              =    -247.14478248 Ry
     estimated scf accuracy    <          6.3E-12 Ry

     iteration # 19     ecut=    70.00 Ry     beta= 0.70
     Davidson diagonalization with overlap
     ethr =  1.00E-13,  avg # of iterations =  2.2

     total cpu time spent up to now is       10.6 secs

     End of self-consistent calculation

          k = 0.0000 0.0000 0.0000 ( 23553 PWs)   bands (ev):

   -16.0309 -15.8547 -15.8547 -15.7700 -15.7700 -15.7649 -15.7649 -15.6171
   -15.6171 -15.5864 -14.3933 -14.2808  -7.1829  -4.9460  -2.5151  -2.5151
    -2.4436  -2.4436  -1.9979

     occupation numbers 
     1.0000   1.0000   1.0000   1.0000   1.0000   1.0000   1.0000   1.0000
     1.0000   1.0000   1.0000   1.0000   1.0000   1.0000   1.0000   1.0000
     1.0000   1.0000   1.0000

          k = 0.0000 0.0962 0.0000 ( 23583 PWs)   bands (ev):

   -16.0301 -15.8739 -15.8542 -15.7928 -15.7668 -15.7659 -15.7616 -15.6314
   -15.6175 -15.5659 -14.3308 -14.2212  -7.1532  -4.9753  -2.9084  -2.8157
    -2.5966  -2.5157  -1.9475

     occupation numbers 
     1.0000   1.0000   1.0000   1.0000   1.0000   1.0000   1.0000   1.0000
     1.0000   1.0000   1.0000   1.0000   1.0000   1.0000   1.0000   1.0000
     1.0000   1.0000   1.0000

          k = 0.0000 0.1925 0.0000 ( 23586 PWs)   bands (ev):

   -16.0302 -15.9192 -15.8533 -15.8480 -15.7715 -15.7547 -15.7518 -15.6455
   -15.6186 -15.5376 -14.1599 -14.0578  -7.0873  -5.1372  -3.6231  -3.3767
    -2.8040  -2.7006  -1.9330

     occupation numbers 
     1.0000   1.0000   1.0000   1.0000   1.0000   1.0000   1.0000   1.0000
     1.0000   1.0000   1.0000   1.0000   1.0000   1.0000   1.0000   1.0000
     1.0000   1.0000   1.0000

          k = 0.0000 0.2887 0.0000 ( 23568 PWs)   bands (ev):

   -16.0415 -15.9611 -15.9112 -15.8532 -15.7774 -15.7395 -15.7371 -15.6550
   -15.6199 -15.5128 -13.9207 -13.8293  -7.0602  -5.5555  -4.2283  -3.6338
    -3.0591  -2.9303  -2.0273

     occupation numbers 
     1.0000   1.0000   1.0000   1.0000   1.0000   1.0000   1.0000   1.0000
     1.0000   1.0000   1.0000   1.0000   1.0000   1.0000   1.0000   1.0000
     1.0000   1.0000   1.0000

          k = 0.0000 0.3849 0.0000 ( 23580 PWs)   bands (ev):

   -16.0721 -15.9765 -15.9651 -15.8541 -15.7832 -15.7246 -15.7214 -15.6618
   -15.6208 -15.4932 -13.6672 -13.5885  -7.1631  -6.0957  -4.5013  -3.6105
    -3.2893  -3.1393  -2.2904

     occupation numbers 
     1.0000   1.0000   1.0000   1.0000   1.0000   1.0000   1.0000   1.0000
     1.0000   1.0000   1.0000   1.0000   1.0000   1.0000   1.0000   1.0000
     1.0000   1.0000   1.0000

          k = 0.0000 0.4811 0.0000 ( 23596 PWs)   bands (ev):

   -16.1006 -16.0003 -15.9781 -15.8551 -15.7872 -15.7139 -15.7094 -15.6663
   -15.6211 -15.4805 -13.4674 -13.4001  -7.3483  -6.5158  -4.4560  -3.5065
    -3.4454  -3.2818  -2.6507

     occupation numbers 
     1.0000   1.0000   1.0000   1.0000   1.0000   1.0000   1.0000   1.0000
     1.0000   1.0000   1.0000   1.0000   1.0000   1.0000   1.0000   1.0000
     1.0000   1.0000   1.0000

          k = 0.0000-0.5774 0.0000 ( 23608 PWs)   bands (ev):

   -16.1114 -16.0125 -15.9778 -15.8555 -15.7887 -15.7101 -15.7049 -15.6678
   -15.6211 -15.4760 -13.3903 -13.3278  -7.4391  -6.6720  -4.3676  -3.5003
    -3.4553  -3.3320  -2.8414

     occupation numbers 
     1.0000   1.0000   1.0000   1.0000   1.0000   1.0000   1.0000   1.0000
     1.0000   1.0000   1.0000   1.0000   1.0000   1.0000   1.0000   1.0000
     1.0000   1.0000   1.0000

          k = 0.0833 0.0481 0.0000 ( 23583 PWs)   bands (ev):

   -16.0301 -15.8739 -15.8542 -15.7928 -15.7668 -15.7659 -15.7616 -15.6314
   -15.6175 -15.5659 -14.3308 -14.2212  -7.1532  -4.9753  -2.9084  -2.8157
    -2.5966  -2.5157  -1.9475

     occupation numbers 
     1.0000   1.0000   1.0000   1.0000   1.0000   1.0000   1.0000   1.0000
     1.0000   1.0000   1.0000   1.0000   1.0000   1.0000   1.0000   1.0000
     1.0000   1.0000   1.0000

          k = 0.0833 0.1443 0.0000 ( 23625 PWs)   bands (ev):

   -16.0297 -15.9058 -15.8538 -15.8312 -15.7696 -15.7586 -15.7555 -15.6421
   -15.6184 -15.5449 -14.2143 -14.1098  -7.1050  -5.0699  -3.4065  -3.2290
    -2.7785  -2.6741  -1.9267

     occupation numbers 
     1.0000   1.0000   1.0000   1.0000   1.0000   1.0000   1.0000   1.0000
     1.0000   1.0000   1.0000   1.0000   1.0000   1.0000   1.0000   1.0000
     1.0000   1.0000   1.0000

          k = 0.0833 0.2406 0.0000 ( 23583 PWs)   bands (ev):

   -16.0347 -15.9485 -15.8885 -15.8541 -15.7739 -15.7462 -15.7441 -15.6511
   -15.6200 -15.5211 -14.0095 -13.9141  -7.0557  -5.3660  -3.9897  -3.5538
    -3.0859  -2.9435  -1.9662

     occupation numbers 
     1.0000   1.0000   1.0000   1.0000   1.0000   1.0000   1.0000   1.0000
     1.0000   1.0000   1.0000   1.0000   1.0000   1.0000   1.0000   1.0000
     1.0000   1.0000   1.0000

          k = 0.0833 0.3368 0.0000 ( 23583 PWs)   bands (ev):

   -16.0572 -15.9734 -15.9448 -15.8555 -15.7788 -15.7320 -15.7298 -15.6578
   -15.6216 -15.5003 -13.7624 -13.6788  -7.0930  -5.8540  -4.3808  -3.6213
    -3.3879  -3.2086  -2.1379

     occupation numbers 
     1.0000   1.0000   1.0000   1.0000   1.0000   1.0000   1.0000   1.0000
     1.0000   1.0000   1.0000   1.0000   1.0000   1.0000   1.0000   1.0000
     1.0000   1.0000   1.0000

          k = 0.0833 0.4330 0.0000 ( 23567 PWs)   bands (ev):

   -16.0886 -15.9876 -15.9783 -15.8572 -15.7830 -15.7200 -15.7168 -15.6624
   -15.6225 -15.4850 -13.5331 -13.4619  -7.2484  -6.3279  -4.4688  -3.6079
    -3.5929  -3.3482  -2.4605

     occupation numbers 
     1.0000   1.0000   1.0000   1.0000   1.0000   1.0000   1.0000   1.0000
     1.0000   1.0000   1.0000   1.0000   1.0000   1.0000   1.0000   1.0000
     1.0000   1.0000   1.0000

          k = 0.0833 0.5292 0.0000 ( 23589 PWs)   bands (ev):

   -16.1081 -16.0103 -15.9780 -15.8584 -15.7854 -15.7132 -15.7090 -15.6648
   -15.6228 -15.4768 -13.3916 -13.3290  -7.3962  -6.6106  -4.4014  -3.6581
    -3.6498  -3.3256  -2.7827

     occupation numbers 
     1.0000   1.0000   1.0000   1.0000   1.0000   1.0000   1.0000   1.0000
     1.0000   1.0000   1.0000   1.0000   1.0000   1.0000   1.0000   1.0000
     1.0000   1.0000   1.0000

          k = 0.0833-0.5292 0.0000 ( 23589 PWs)   bands (ev):

   -16.1081 -16.0103 -15.9780 -15.8584 -15.7854 -15.7132 -15.7090 -15.6648
   -15.6228 -15.4768 -13.3916 -13.3290  -7.3962  -6.6106  -4.4014  -3.6581
    -3.6498  -3.3256  -2.7827

     occupation numbers 
     1.0000   1.0000   1.0000   1.0000   1.0000   1.0000   1.0000   1.0000
     1.0000   1.0000   1.0000   1.0000   1.0000   1.0000   1.0000   1.0000
     1.0000   1.0000   1.0000

          k = 0.0833-0.4330 0.0000 ( 23567 PWs)   bands (ev):

   -16.0886 -15.9876 -15.9783 -15.8572 -15.7830 -15.7200 -15.7168 -15.6624
   -15.6225 -15.4850 -13.5331 -13.4619  -7.2484  -6.3279  -4.4688  -3.6079
    -3.5929  -3.3482  -2.4605

     occupation numbers 
     1.0000   1.0000   1.0000   1.0000   1.0000   1.0000   1.0000   1.0000
     1.0000   1.0000   1.0000   1.0000   1.0000   1.0000   1.0000   1.0000
     1.0000   1.0000   1.0000

          k = 0.0833-0.3368 0.0000 ( 23583 PWs)   bands (ev):

   -16.0572 -15.9734 -15.9448 -15.8555 -15.7788 -15.7320 -15.7298 -15.6578
   -15.6216 -15.5003 -13.7624 -13.6788  -7.0930  -5.8540  -4.3808  -3.6213
    -3.3879  -3.2086  -2.1379

     occupation numbers 
     1.0000   1.0000   1.0000   1.0000   1.0000   1.0000   1.0000   1.0000
     1.0000   1.0000   1.0000   1.0000   1.0000   1.0000   1.0000   1.0000
     1.0000   1.0000   1.0000

          k = 0.0833-0.2406 0.0000 ( 23583 PWs)   bands (ev):

   -16.0347 -15.9485 -15.8885 -15.8541 -15.7739 -15.7462 -15.7441 -15.6511
   -15.6200 -15.5211 -14.0095 -13.9141  -7.0557  -5.3660  -3.9897  -3.5538
    -3.0859  -2.9435  -1.9662

     occupation numbers 
     1.0000   1.0000   1.0000   1.0000   1.0000   1.0000   1.0000   1.0000
     1.0000   1.0000   1.0000   1.0000   1.0000   1.0000   1.0000   1.0000
     1.0000   1.0000   1.0000

          k = 0.0833-0.1443 0.0000 ( 23625 PWs)   bands (ev):

   -16.0297 -15.9058 -15.8538 -15.8312 -15.7696 -15.7586 -15.7555 -15.6421
   -15.6184 -15.5449 -14.2143 -14.1098  -7.1050  -5.0699  -3.4065  -3.2290
    -2.7785  -2.6741  -1.9267

     occupation numbers 
     1.0000   1.0000   1.0000   1.0000   1.0000   1.0000   1.0000   1.0000
     1.0000   1.0000   1.0000   1.0000   1.0000   1.0000   1.0000   1.0000
     1.0000   1.0000   1.0000

          k = 0.0833-0.0481 0.0000 ( 23583 PWs)   bands (ev):

   -16.0301 -15.8739 -15.8542 -15.7928 -15.7668 -15.7659 -15.7616 -15.6314
   -15.6175 -15.5659 -14.3308 -14.2212  -7.1532  -4.9753  -2.9084  -2.8157
    -2.5966  -2.5157  -1.9475

     occupation numbers 
     1.0000   1.0000   1.0000   1.0000   1.0000   1.0000   1.0000   1.0000
     1.0000   1.0000   1.0000   1.0000   1.0000   1.0000   1.0000   1.0000
     1.0000   1.0000   1.0000

          k = 0.1667 0.0962 0.0000 ( 23586 PWs)   bands (ev):

   -16.0302 -15.9192 -15.8533 -15.8480 -15.7715 -15.7547 -15.7518 -15.6455
   -15.6186 -15.5376 -14.1599 -14.0578  -7.0873  -5.1372  -3.6231  -3.3767
    -2.8040  -2.7006  -1.9330

     occupation numbers 
     1.0000   1.0000   1.0000   1.0000   1.0000   1.0000   1.0000   1.0000
     1.0000   1.0000   1.0000   1.0000   1.0000   1.0000   1.0000   1.0000
     1.0000   1.0000   1.0000

          k = 0.1667 0.1925 0.0000 ( 23583 PWs)   bands (ev):

   -16.0347 -15.9485 -15.8885 -15.8541 -15.7739 -15.7462 -15.7441 -15.6511
   -15.6200 -15.5211 -14.0095 -13.9141  -7.0557  -5.3660  -3.9897  -3.5538
    -3.0859  -2.9435  -1.9662

     occupation numbers 
     1.0000   1.0000   1.0000   1.0000   1.0000   1.0000   1.0000   1.0000
     1.0000   1.0000   1.0000   1.0000   1.0000   1.0000   1.0000   1.0000
     1.0000   1.0000   1.0000

          k = 0.1667 0.2887 0.0000 ( 23562 PWs)   bands (ev):

   -16.0512 -15.9716 -15.9361 -15.8571 -15.7755 -15.7360 -15.7347 -15.6552
   -15.6226 -15.5031 -13.7967 -13.7114  -7.0674  -5.7439  -4.2484  -3.5718
    -3.5587  -3.3520  -2.0787

     occupation numbers 
     1.0000   1.0000   1.0000   1.0000   1.0000   1.0000   1.0000   1.0000
     1.0000   1.0000   1.0000   1.0000   1.0000   1.0000   1.0000   1.0000
     1.0000   1.0000   1.0000

          k = 0.1667 0.3849 0.0000 ( 23580 PWs)   bands (ev):

   -16.0787 -15.9785 -15.9780 -15.8610 -15.7768 -15.7262 -15.7254 -15.6575
   -15.6253 -15.4881 -13.5709 -13.4976  -7.1666  -6.1563  -4.3379  -3.9437
    -3.7617  -3.4522  -2.3185

     occupation numbers 
     1.0000   1.0000   1.0000   1.0000   1.0000   1.0000   1.0000   1.0000
     1.0000   1.0000   1.0000   1.0000   1.0000   1.0000   1.0000   1.0000
     1.0000   1.0000   1.0000

          k = 0.1667 0.4811 0.0000 ( 23562 PWs)   bands (ev):

   -16.1013 -16.0059 -15.9786 -15.8642 -15.7777 -15.7192 -15.7184 -15.6584
   -15.6271 -15.4783 -13.3941 -13.3314  -7.3043  -6.4711  -4.4654  -4.0264
    -3.9339  -3.3288  -2.6536

     occupation numbers 
     1.0000   1.0000   1.0000   1.0000   1.0000   1.0000   1.0000   1.0000
     1.0000   1.0000   1.0000   1.0000   1.0000   1.0000   1.0000   1.0000
     1.0000   1.0000   1.0000

          k = 0.1667 0.5774 0.0000 ( 23566 PWs)   bands (ev):

   -16.1097 -16.0156 -15.9781 -15.8654 -15.7780 -15.7167 -15.7158 -15.6586
   -15.6277 -15.4750 -13.3263 -13.2680  -7.3686  -6.5890  -4.5463  -4.1188
    -3.8037  -3.2740  -2.8572

     occupation numbers 
     1.0000   1.0000   1.0000   1.0000   1.0000   1.0000   1.0000   1.0000
     1.0000   1.0000   1.0000   1.0000   1.0000   1.0000   1.0000   1.0000
     1.0000   1.0000   1.0000

          k = 0.1667-0.4811 0.0000 ( 23562 PWs)   bands (ev):

   -16.1013 -16.0059 -15.9786 -15.8642 -15.7777 -15.7192 -15.7184 -15.6584
   -15.6271 -15.4783 -13.3941 -13.3314  -7.3043  -6.4711  -4.4654  -4.0264
    -3.9339  -3.3288  -2.6536

     occupation numbers 
     1.0000   1.0000   1.0000   1.0000   1.0000   1.0000   1.0000   1.0000
     1.0000   1.0000   1.0000   1.0000   1.0000   1.0000   1.0000   1.0000
     1.0000   1.0000   1.0000

          k = 0.1667-0.3849 0.0000 ( 23580 PWs)   bands (ev):

   -16.0787 -15.9785 -15.9780 -15.8610 -15.7768 -15.7262 -15.7254 -15.6575
   -15.6253 -15.4881 -13.5709 -13.4976  -7.1666  -6.1563  -4.3379  -3.9437
    -3.7617  -3.4522  -2.3185

     occupation numbers 
     1.0000   1.0000   1.0000   1.0000   1.0000   1.0000   1.0000   1.0000
     1.0000   1.0000   1.0000   1.0000   1.0000   1.0000   1.0000   1.0000
     1.0000   1.0000   1.0000

          k = 0.1667-0.2887 0.0000 ( 23562 PWs)   bands (ev):

   -16.0512 -15.9716 -15.9361 -15.8571 -15.7755 -15.7360 -15.7347 -15.6552
   -15.6226 -15.5031 -13.7967 -13.7114  -7.0674  -5.7439  -4.2484  -3.5718
    -3.5587  -3.3520  -2.0787

     occupation numbers 
     1.0000   1.0000   1.0000   1.0000   1.0000   1.0000   1.0000   1.0000
     1.0000   1.0000   1.0000   1.0000   1.0000   1.0000   1.0000   1.0000
     1.0000   1.0000   1.0000

          k = 0.1667-0.1925 0.0000 ( 23583 PWs)   bands (ev):

   -16.0347 -15.9485 -15.8885 -15.8541 -15.7739 -15.7462 -15.7441 -15.6511
   -15.6200 -15.5211 -14.0095 -13.9141  -7.0557  -5.3660  -3.9897  -3.5538
    -3.0859  -2.9435  -1.9662

     occupation numbers 
     1.0000   1.0000   1.0000   1.0000   1.0000   1.0000   1.0000   1.0000
     1.0000   1.0000   1.0000   1.0000   1.0000   1.0000   1.0000   1.0000
     1.0000   1.0000   1.0000

          k = 0.1667-0.0962 0.0000 ( 23586 PWs)   bands (ev):

   -16.0302 -15.9192 -15.8533 -15.8480 -15.7715 -15.7547 -15.7518 -15.6455
   -15.6186 -15.5376 -14.1599 -14.0578  -7.0873  -5.1372  -3.6231  -3.3767
    -2.8040  -2.7006  -1.9330

     occupation numbers 
     1.0000   1.0000   1.0000   1.0000   1.0000   1.0000   1.0000   1.0000
     1.0000   1.0000   1.0000   1.0000   1.0000   1.0000   1.0000   1.0000
     1.0000   1.0000   1.0000

          k = 0.1667-0.0000 0.0000 ( 23625 PWs)   bands (ev):

   -16.0297 -15.9058 -15.8538 -15.8312 -15.7696 -15.7586 -15.7555 -15.6421
   -15.6184 -15.5449 -14.2143 -14.1098  -7.1050  -5.0699  -3.4065  -3.2290
    -2.7785  -2.6741  -1.9267

     occupation numbers 
     1.0000   1.0000   1.0000   1.0000   1.0000   1.0000   1.0000   1.0000
     1.0000   1.0000   1.0000   1.0000   1.0000   1.0000   1.0000   1.0000
     1.0000   1.0000   1.0000

          k = 0.2500 0.1443 0.0000 ( 23568 PWs)   bands (ev):

   -16.0415 -15.9611 -15.9112 -15.8532 -15.7774 -15.7395 -15.7371 -15.6550
   -15.6199 -15.5128 -13.9207 -13.8293  -7.0602  -5.5555  -4.2283  -3.6338
    -3.0591  -2.9303  -2.0273

     occupation numbers 
     1.0000   1.0000   1.0000   1.0000   1.0000   1.0000   1.0000   1.0000
     1.0000   1.0000   1.0000   1.0000   1.0000   1.0000   1.0000   1.0000
     1.0000   1.0000   1.0000

          k = 0.2500 0.2406 0.0000 ( 23583 PWs)   bands (ev):

   -16.0572 -15.9734 -15.9448 -15.8555 -15.7788 -15.7320 -15.7298 -15.6578
   -15.6216 -15.5003 -13.7624 -13.6788  -7.0930  -5.8540  -4.3808  -3.6213
    -3.3879  -3.2086  -2.1379

     occupation numbers 
     1.0000   1.0000   1.0000   1.0000   1.0000   1.0000   1.0000   1.0000
     1.0000   1.0000   1.0000   1.0000   1.0000   1.0000   1.0000   1.0000
     1.0000   1.0000   1.0000

          k = 0.2500 0.3368 0.0000 ( 23580 PWs)   bands (ev):

   -16.0787 -15.9785 -15.9780 -15.8610 -15.7768 -15.7262 -15.7254 -15.6575
   -15.6253 -15.4881 -13.5709 -13.4976  -7.1666  -6.1563  -4.3379  -3.9437
    -3.7617  -3.4522  -2.3185

     occupation numbers 
     1.0000   1.0000   1.0000   1.0000   1.0000   1.0000   1.0000   1.0000
     1.0000   1.0000   1.0000   1.0000   1.0000   1.0000   1.0000   1.0000
     1.0000   1.0000   1.0000

          k = 0.2500 0.4330 0.0000 ( 23558 PWs)   bands (ev):

   -16.0978 -16.0036 -15.9790 -15.8671 -15.7730 -15.7241 -15.7221 -15.6547
   -15.6299 -15.4791 -13.3953 -13.3326  -7.2546  -6.3899  -4.4976  -4.2071
    -4.0677  -3.3314  -2.5864

     occupation numbers 
     1.0000   1.0000   1.0000   1.0000   1.0000   1.0000   1.0000   1.0000
     1.0000   1.0000   1.0000   1.0000   1.0000   1.0000   1.0000   1.0000
     1.0000   1.0000   1.0000

          k = 0.2500 0.5292 0.0000 ( 23550 PWs)   bands (ev):

   -16.1086 -16.0173 -15.9783 -15.8709 -15.7698 -15.7244 -15.7199 -15.6515
   -15.6338 -15.4745 -13.2889 -13.2332  -7.3127  -6.5159  -4.7877  -4.4747
    -3.7926  -3.2379  -2.8693

     occupation numbers 
     1.0000   1.0000   1.0000   1.0000   1.0000   1.0000   1.0000   1.0000
     1.0000   1.0000   1.0000   1.0000   1.0000   1.0000   1.0000   1.0000
     1.0000   1.0000   1.0000

          k = 0.2500 0.6255 0.0000 ( 23550 PWs)   bands (ev):

   -16.1086 -16.0173 -15.9783 -15.8709 -15.7698 -15.7244 -15.7199 -15.6515
   -15.6338 -15.4745 -13.2889 -13.2332  -7.3127  -6.5159  -4.7877  -4.4747
    -3.7926  -3.2379  -2.8693

     occupation numbers 
     1.0000   1.0000   1.0000   1.0000   1.0000   1.0000   1.0000   1.0000
     1.0000   1.0000   1.0000   1.0000   1.0000   1.0000   1.0000   1.0000
     1.0000   1.0000   1.0000

          k = 0.2500-0.4330 0.0000 ( 23558 PWs)   bands (ev):

   -16.0978 -16.0036 -15.9790 -15.8671 -15.7730 -15.7241 -15.7221 -15.6547
   -15.6299 -15.4791 -13.3953 -13.3326  -7.2546  -6.3899  -4.4976  -4.2071
    -4.0677  -3.3314  -2.5864

     occupation numbers 
     1.0000   1.0000   1.0000   1.0000   1.0000   1.0000   1.0000   1.0000
     1.0000   1.0000   1.0000   1.0000   1.0000   1.0000   1.0000   1.0000
     1.0000   1.0000   1.0000

          k = 0.2500-0.3368 0.0000 ( 23580 PWs)   bands (ev):

   -16.0787 -15.9785 -15.9780 -15.8610 -15.7768 -15.7262 -15.7254 -15.6575
   -15.6253 -15.4881 -13.5709 -13.4976  -7.1666  -6.1563  -4.3379  -3.9437
    -3.7617  -3.4522  -2.3185

     occupation numbers 
     1.0000   1.0000   1.0000   1.0000   1.0000   1.0000   1.0000   1.0000
     1.0000   1.0000   1.0000   1.0000   1.0000   1.0000   1.0000   1.0000
     1.0000   1.0000   1.0000

          k = 0.2500-0.2406 0.0000 ( 23583 PWs)   bands (ev):

   -16.0572 -15.9734 -15.9448 -15.8555 -15.7788 -15.7320 -15.7298 -15.6578
   -15.6216 -15.5003 -13.7624 -13.6788  -7.0930  -5.8540  -4.3808  -3.6213
    -3.3879  -3.2086  -2.1379

     occupation numbers 
     1.0000   1.0000   1.0000   1.0000   1.0000   1.0000   1.0000   1.0000
     1.0000   1.0000   1.0000   1.0000   1.0000   1.0000   1.0000   1.0000
     1.0000   1.0000   1.0000

          k = 0.2500-0.1443 0.0000 ( 23568 PWs)   bands (ev):

   -16.0415 -15.9611 -15.9112 -15.8532 -15.7774 -15.7395 -15.7371 -15.6550
   -15.6199 -15.5128 -13.9207 -13.8293  -7.0602  -5.5555  -4.2283  -3.6338
    -3.0591  -2.9303  -2.0273

     occupation numbers 
     1.0000   1.0000   1.0000   1.0000   1.0000   1.0000   1.0000   1.0000
     1.0000   1.0000   1.0000   1.0000   1.0000   1.0000   1.0000   1.0000
     1.0000   1.0000   1.0000

          k = 0.2500-0.0481 0.0000 ( 23583 PWs)   bands (ev):

   -16.0347 -15.9485 -15.8885 -15.8541 -15.7739 -15.7462 -15.7441 -15.6511
   -15.6200 -15.5211 -14.0095 -13.9141  -7.0557  -5.3660  -3.9897  -3.5538
    -3.0859  -2.9435  -1.9662

     occupation numbers 
     1.0000   1.0000   1.0000   1.0000   1.0000   1.0000   1.0000   1.0000
     1.0000   1.0000   1.0000   1.0000   1.0000   1.0000   1.0000   1.0000
     1.0000   1.0000   1.0000

          k = 0.2500 0.0481 0.0000 ( 23583 PWs)   bands (ev):

   -16.0347 -15.9485 -15.8885 -15.8541 -15.7739 -15.7462 -15.7441 -15.6511
   -15.6200 -15.5211 -14.0095 -13.9141  -7.0557  -5.3660  -3.9897  -3.5538
    -3.0859  -2.9435  -1.9662

     occupation numbers 
     1.0000   1.0000   1.0000   1.0000   1.0000   1.0000   1.0000   1.0000
     1.0000   1.0000   1.0000   1.0000   1.0000   1.0000   1.0000   1.0000
     1.0000   1.0000   1.0000

          k = 0.3333 0.1925 0.0000 ( 23580 PWs)   bands (ev):

   -16.0721 -15.9765 -15.9651 -15.8541 -15.7832 -15.7246 -15.7214 -15.6618
   -15.6208 -15.4932 -13.6672 -13.5885  -7.1631  -6.0957  -4.5013  -3.6105
    -3.2893  -3.1393  -2.2904

     occupation numbers 
     1.0000   1.0000   1.0000   1.0000   1.0000   1.0000   1.0000   1.0000
     1.0000   1.0000   1.0000   1.0000   1.0000   1.0000   1.0000   1.0000
     1.0000   1.0000   1.0000

          k = 0.3333 0.2887 0.0000 ( 23567 PWs)   bands (ev):

   -16.0886 -15.9876 -15.9783 -15.8572 -15.7830 -15.7200 -15.7168 -15.6624
   -15.6225 -15.4850 -13.5331 -13.4619  -7.2484  -6.3279  -4.4688  -3.6079
    -3.5929  -3.3482  -2.4605

     occupation numbers 
     1.0000   1.0000   1.0000   1.0000   1.0000   1.0000   1.0000   1.0000
     1.0000   1.0000   1.0000   1.0000   1.0000   1.0000   1.0000   1.0000
     1.0000   1.0000   1.0000

          k = 0.3333 0.3849 0.0000 ( 23562 PWs)   bands (ev):

   -16.1013 -16.0059 -15.9786 -15.8642 -15.7777 -15.7192 -15.7184 -15.6584
   -15.6271 -15.4783 -13.3941 -13.3314  -7.3043  -6.4711  -4.4654  -4.0264
    -3.9339  -3.3288  -2.6536

     occupation numbers 
     1.0000   1.0000   1.0000   1.0000   1.0000   1.0000   1.0000   1.0000
     1.0000   1.0000   1.0000   1.0000   1.0000   1.0000   1.0000   1.0000
     1.0000   1.0000   1.0000

          k = 0.3333 0.4811 0.0000 ( 23550 PWs)   bands (ev):

   -16.1086 -16.0173 -15.9783 -15.8709 -15.7698 -15.7244 -15.7199 -15.6515
   -15.6338 -15.4745 -13.2889 -13.2332  -7.3127  -6.5159  -4.7877  -4.4747
    -3.7926  -3.2379  -2.8693

     occupation numbers 
     1.0000   1.0000   1.0000   1.0000   1.0000   1.0000   1.0000   1.0000
     1.0000   1.0000   1.0000   1.0000   1.0000   1.0000   1.0000   1.0000
     1.0000   1.0000   1.0000

          k = 0.3333 0.5774 0.0000 ( 23544 PWs)   bands (ev):

   -16.1108 -16.0212 -15.9781 -15.8737 -15.7653 -15.7284 -15.7203 -15.6453
   -15.6399 -15.4733 -13.2497 -13.1966  -7.3055  -6.5156  -4.9522  -4.6564
    -3.6439  -3.2005  -2.9989

     occupation numbers 
     1.0000   1.0000   1.0000   1.0000   1.0000   1.0000   1.0000   1.0000
     1.0000   1.0000   1.0000   1.0000   1.0000   1.0000   1.0000   1.0000
     1.0000   1.0000   1.0000

          k = 0.3333 0.6736 0.0000 ( 23550 PWs)   bands (ev):

   -16.1086 -16.0173 -15.9783 -15.8709 -15.7698 -15.7244 -15.7199 -15.6515
   -15.6338 -15.4745 -13.2889 -13.2332  -7.3127  -6.5159  -4.7877  -4.4747
    -3.7926  -3.2379  -2.8693

     occupation numbers 
     1.0000   1.0000   1.0000   1.0000   1.0000   1.0000   1.0000   1.0000
     1.0000   1.0000   1.0000   1.0000   1.0000   1.0000   1.0000   1.0000
     1.0000   1.0000   1.0000

          k = 0.3333-0.3849 0.0000 ( 23562 PWs)   bands (ev):

   -16.1013 -16.0059 -15.9786 -15.8642 -15.7777 -15.7192 -15.7184 -15.6584
   -15.6271 -15.4783 -13.3941 -13.3314  -7.3043  -6.4711  -4.4654  -4.0264
    -3.9339  -3.3288  -2.6536

     occupation numbers 
     1.0000   1.0000   1.0000   1.0000   1.0000   1.0000   1.0000   1.0000
     1.0000   1.0000   1.0000   1.0000   1.0000   1.0000   1.0000   1.0000
     1.0000   1.0000   1.0000

          k = 0.3333-0.2887 0.0000 ( 23567 PWs)   bands (ev):

   -16.0886 -15.9876 -15.9783 -15.8572 -15.7830 -15.7200 -15.7168 -15.6624
   -15.6225 -15.4850 -13.5331 -13.4619  -7.2484  -6.3279  -4.4688  -3.6079
    -3.5929  -3.3482  -2.4605

     occupation numbers 
     1.0000   1.0000   1.0000   1.0000   1.0000   1.0000   1.0000   1.0000
     1.0000   1.0000   1.0000   1.0000   1.0000   1.0000   1.0000   1.0000
     1.0000   1.0000   1.0000

          k = 0.3333-0.1925 0.0000 ( 23580 PWs)   bands (ev):

   -16.0721 -15.9765 -15.9651 -15.8541 -15.7832 -15.7246 -15.7214 -15.6618
   -15.6208 -15.4932 -13.6672 -13.5885  -7.1631  -6.0957  -4.5013  -3.6105
    -3.2893  -3.1393  -2.2904

     occupation numbers 
     1.0000   1.0000   1.0000   1.0000   1.0000   1.0000   1.0000   1.0000
     1.0000   1.0000   1.0000   1.0000   1.0000   1.0000   1.0000   1.0000
     1.0000   1.0000   1.0000

          k = 0.3333-0.0962 0.0000 ( 23583 PWs)   bands (ev):

   -16.0572 -15.9734 -15.9448 -15.8555 -15.7788 -15.7320 -15.7298 -15.6578
   -15.6216 -15.5003 -13.7624 -13.6788  -7.0930  -5.8540  -4.3808  -3.6213
    -3.3879  -3.2086  -2.1379

     occupation numbers 
     1.0000   1.0000   1.0000   1.0000   1.0000   1.0000   1.0000   1.0000
     1.0000   1.0000   1.0000   1.0000   1.0000   1.0000   1.0000   1.0000
     1.0000   1.0000   1.0000

          k = 0.3333 0.0000 0.0000 ( 23562 PWs)   bands (ev):

   -16.0512 -15.9716 -15.9361 -15.8571 -15.7755 -15.7360 -15.7347 -15.6552
   -15.6226 -15.5031 -13.7967 -13.7114  -7.0674  -5.7439  -4.2484  -3.5718
    -3.5587  -3.3520  -2.0787

     occupation numbers 
     1.0000   1.0000   1.0000   1.0000   1.0000   1.0000   1.0000   1.0000
     1.0000   1.0000   1.0000   1.0000   1.0000   1.0000   1.0000   1.0000
     1.0000   1.0000   1.0000

          k = 0.3333 0.0962 0.0000 ( 23583 PWs)   bands (ev):

   -16.0572 -15.9734 -15.9448 -15.8555 -15.7788 -15.7320 -15.7298 -15.6578
   -15.6216 -15.5003 -13.7624 -13.6788  -7.0930  -5.8540  -4.3808  -3.6213
    -3.3879  -3.2086  -2.1379

     occupation numbers 
     1.0000   1.0000   1.0000   1.0000   1.0000   1.0000   1.0000   1.0000
     1.0000   1.0000   1.0000   1.0000   1.0000   1.0000   1.0000   1.0000
     1.0000   1.0000   1.0000

          k = 0.4167 0.2406 0.0000 ( 23596 PWs)   bands (ev):

   -16.1006 -16.0003 -15.9781 -15.8551 -15.7872 -15.7139 -15.7094 -15.6663
   -15.6211 -15.4805 -13.4674 -13.4001  -7.3483  -6.5158  -4.4560  -3.5065
    -3.4454  -3.2818  -2.6507

     occupation numbers 
     1.0000   1.0000   1.0000   1.0000   1.0000   1.0000   1.0000   1.0000
     1.0000   1.0000   1.0000   1.0000   1.0000   1.0000   1.0000   1.0000
     1.0000   1.0000   1.0000

          k = 0.4167 0.3368 0.0000 ( 23589 PWs)   bands (ev):

   -16.1081 -16.0103 -15.9780 -15.8584 -15.7854 -15.7132 -15.7090 -15.6648
   -15.6228 -15.4768 -13.3916 -13.3290  -7.3962  -6.6106  -4.4014  -3.6581
    -3.6498  -3.3256  -2.7827

     occupation numbers 
     1.0000   1.0000   1.0000   1.0000   1.0000   1.0000   1.0000   1.0000
     1.0000   1.0000   1.0000   1.0000   1.0000   1.0000   1.0000   1.0000
     1.0000   1.0000   1.0000

          k = 0.4167 0.4330 0.0000 ( 23566 PWs)   bands (ev):

   -16.1097 -16.0156 -15.9781 -15.8654 -15.7780 -15.7167 -15.7158 -15.6586
   -15.6277 -15.4750 -13.3263 -13.2680  -7.3686  -6.5890  -4.5463  -4.1188
    -3.8037  -3.2740  -2.8572

     occupation numbers 
     1.0000   1.0000   1.0000   1.0000   1.0000   1.0000   1.0000   1.0000
     1.0000   1.0000   1.0000   1.0000   1.0000   1.0000   1.0000   1.0000
     1.0000   1.0000   1.0000

          k = 0.4167 0.5292 0.0000 ( 23550 PWs)   bands (ev):

   -16.1086 -16.0173 -15.9783 -15.8709 -15.7698 -15.7244 -15.7199 -15.6515
   -15.6338 -15.4745 -13.2889 -13.2332  -7.3127  -6.5159  -4.7877  -4.4747
    -3.7926  -3.2379  -2.8693

     occupation numbers 
     1.0000   1.0000   1.0000   1.0000   1.0000   1.0000   1.0000   1.0000
     1.0000   1.0000   1.0000   1.0000   1.0000   1.0000   1.0000   1.0000
     1.0000   1.0000   1.0000

          k = 0.4167 0.6255 0.0000 ( 23550 PWs)   bands (ev):

   -16.1086 -16.0173 -15.9783 -15.8709 -15.7698 -15.7244 -15.7199 -15.6515
   -15.6338 -15.4745 -13.2889 -13.2332  -7.3127  -6.5159  -4.7877  -4.4747
    -3.7926  -3.2379  -2.8693

     occupation numbers 
     1.0000   1.0000   1.0000   1.0000   1.0000   1.0000   1.0000   1.0000
     1.0000   1.0000   1.0000   1.0000   1.0000   1.0000   1.0000   1.0000
     1.0000   1.0000   1.0000

          k = 0.4167 0.7217 0.0000 ( 23566 PWs)   bands (ev):

   -16.1097 -16.0156 -15.9781 -15.8654 -15.7780 -15.7167 -15.7158 -15.6586
   -15.6277 -15.4750 -13.3263 -13.2680  -7.3686  -6.5890  -4.5463  -4.1188
    -3.8037  -3.2740  -2.8572

     occupation numbers 
     1.0000   1.0000   1.0000   1.0000   1.0000   1.0000   1.0000   1.0000
     1.0000   1.0000   1.0000   1.0000   1.0000   1.0000   1.0000   1.0000
     1.0000   1.0000   1.0000

          k = 0.4167-0.3368 0.0000 ( 23589 PWs)   bands (ev):

   -16.1081 -16.0103 -15.9780 -15.8584 -15.7854 -15.7132 -15.7090 -15.6648
   -15.6228 -15.4768 -13.3916 -13.3290  -7.3962  -6.6106  -4.4014  -3.6581
    -3.6498  -3.3256  -2.7827

     occupation numbers 
     1.0000   1.0000   1.0000   1.0000   1.0000   1.0000   1.0000   1.0000
     1.0000   1.0000   1.0000   1.0000   1.0000   1.0000   1.0000   1.0000
     1.0000   1.0000   1.0000

          k = 0.4167-0.2406 0.0000 ( 23596 PWs)   bands (ev):

   -16.1006 -16.0003 -15.9781 -15.8551 -15.7872 -15.7139 -15.7094 -15.6663
   -15.6211 -15.4805 -13.4674 -13.4001  -7.3483  -6.5158  -4.4560  -3.5065
    -3.4454  -3.2818  -2.6507

     occupation numbers 
     1.0000   1.0000   1.0000   1.0000   1.0000   1.0000   1.0000   1.0000
     1.0000   1.0000   1.0000   1.0000   1.0000   1.0000   1.0000   1.0000
     1.0000   1.0000   1.0000

          k = 0.4167-0.1443 0.0000 ( 23567 PWs)   bands (ev):

   -16.0886 -15.9876 -15.9783 -15.8572 -15.7830 -15.7200 -15.7168 -15.6624
   -15.6225 -15.4850 -13.5331 -13.4619  -7.2484  -6.3279  -4.4688  -3.6079
    -3.5929  -3.3482  -2.4605

     occupation numbers 
     1.0000   1.0000   1.0000   1.0000   1.0000   1.0000   1.0000   1.0000
     1.0000   1.0000   1.0000   1.0000   1.0000   1.0000   1.0000   1.0000
     1.0000   1.0000   1.0000

          k = 0.4167-0.0481 0.0000 ( 23580 PWs)   bands (ev):

   -16.0787 -15.9785 -15.9780 -15.8610 -15.7768 -15.7262 -15.7254 -15.6575
   -15.6253 -15.4881 -13.5709 -13.4976  -7.1666  -6.1563  -4.3379  -3.9437
    -3.7617  -3.4522  -2.3185

     occupation numbers 
     1.0000   1.0000   1.0000   1.0000   1.0000   1.0000   1.0000   1.0000
     1.0000   1.0000   1.0000   1.0000   1.0000   1.0000   1.0000   1.0000
     1.0000   1.0000   1.0000

          k = 0.4167 0.0481 0.0000 ( 23580 PWs)   bands (ev):

   -16.0787 -15.9785 -15.9780 -15.8610 -15.7768 -15.7262 -15.7254 -15.6575
   -15.6253 -15.4881 -13.5709 -13.4976  -7.1666  -6.1563  -4.3379  -3.9437
    -3.7617  -3.4522  -2.3185

     occupation numbers 
     1.0000   1.0000   1.0000   1.0000   1.0000   1.0000   1.0000   1.0000
     1.0000   1.0000   1.0000   1.0000   1.0000   1.0000   1.0000   1.0000
     1.0000   1.0000   1.0000

          k = 0.4167 0.1443 0.0000 ( 23567 PWs)   bands (ev):

   -16.0886 -15.9876 -15.9783 -15.8572 -15.7830 -15.7200 -15.7168 -15.6624
   -15.6225 -15.4850 -13.5331 -13.4619  -7.2484  -6.3279  -4.4688  -3.6079
    -3.5929  -3.3482  -2.4605

     occupation numbers 
     1.0000   1.0000   1.0000   1.0000   1.0000   1.0000   1.0000   1.0000
     1.0000   1.0000   1.0000   1.0000   1.0000   1.0000   1.0000   1.0000
     1.0000   1.0000   1.0000

          k =-0.5000-0.2887 0.0000 ( 23608 PWs)   bands (ev):

   -16.1114 -16.0125 -15.9778 -15.8555 -15.7887 -15.7101 -15.7049 -15.6678
   -15.6211 -15.4760 -13.3903 -13.3278  -7.4391  -6.6720  -4.3676  -3.5003
    -3.4553  -3.3320  -2.8414

     occupation numbers 
     1.0000   1.0000   1.0000   1.0000   1.0000   1.0000   1.0000   1.0000
     1.0000   1.0000   1.0000   1.0000   1.0000   1.0000   1.0000   1.0000
     1.0000   1.0000   1.0000

          k =-0.5000-0.1925 0.0000 ( 23589 PWs)   bands (ev):

   -16.1081 -16.0103 -15.9780 -15.8584 -15.7854 -15.7132 -15.7090 -15.6648
   -15.6228 -15.4768 -13.3916 -13.3290  -7.3962  -6.6106  -4.4014  -3.6581
    -3.6498  -3.3256  -2.7827

     occupation numbers 
     1.0000   1.0000   1.0000   1.0000   1.0000   1.0000   1.0000   1.0000
     1.0000   1.0000   1.0000   1.0000   1.0000   1.0000   1.0000   1.0000
     1.0000   1.0000   1.0000

          k =-0.5000-0.0962 0.0000 ( 23562 PWs)   bands (ev):

   -16.1013 -16.0059 -15.9786 -15.8642 -15.7777 -15.7192 -15.7184 -15.6584
   -15.6271 -15.4783 -13.3941 -13.3314  -7.3043  -6.4711  -4.4654  -4.0264
    -3.9339  -3.3288  -2.6536

     occupation numbers 
     1.0000   1.0000   1.0000   1.0000   1.0000   1.0000   1.0000   1.0000
     1.0000   1.0000   1.0000   1.0000   1.0000   1.0000   1.0000   1.0000
     1.0000   1.0000   1.0000

          k =-0.5000 0.0000 0.0000 ( 23558 PWs)   bands (ev):

   -16.0978 -16.0036 -15.9790 -15.8671 -15.7730 -15.7241 -15.7221 -15.6547
   -15.6299 -15.4791 -13.3953 -13.3326  -7.2546  -6.3899  -4.4976  -4.2071
    -4.0677  -3.3314  -2.5864

     occupation numbers 
     1.0000   1.0000   1.0000   1.0000   1.0000   1.0000   1.0000   1.0000
     1.0000   1.0000   1.0000   1.0000   1.0000   1.0000   1.0000   1.0000
     1.0000   1.0000   1.0000

          k =-0.5000 0.0962 0.0000 ( 23562 PWs)   bands (ev):

   -16.1013 -16.0059 -15.9786 -15.8642 -15.7777 -15.7192 -15.7184 -15.6584
   -15.6271 -15.4783 -13.3941 -13.3314  -7.3043  -6.4711  -4.4654  -4.0264
    -3.9339  -3.3288  -2.6536

     occupation numbers 
     1.0000   1.0000   1.0000   1.0000   1.0000   1.0000   1.0000   1.0000
     1.0000   1.0000   1.0000   1.0000   1.0000   1.0000   1.0000   1.0000
     1.0000   1.0000   1.0000

          k =-0.5000 0.1925 0.0000 ( 23589 PWs)   bands (ev):

   -16.1081 -16.0103 -15.9780 -15.8584 -15.7854 -15.7132 -15.7090 -15.6648
   -15.6228 -15.4768 -13.3916 -13.3290  -7.3962  -6.6106  -4.4014  -3.6581
    -3.6498  -3.3256  -2.7827

     occupation numbers 
     1.0000   1.0000   1.0000   1.0000   1.0000   1.0000   1.0000   1.0000
     1.0000   1.0000   1.0000   1.0000   1.0000   1.0000   1.0000   1.0000
     1.0000   1.0000   1.0000

          k =-0.5000-0.8660 0.0000 ( 23608 PWs)   bands (ev):

   -16.1114 -16.0125 -15.9778 -15.8555 -15.7887 -15.7101 -15.7049 -15.6678
   -15.6211 -15.4760 -13.3903 -13.3278  -7.4391  -6.6720  -4.3676  -3.5003
    -3.4553  -3.3320  -2.8414

     occupation numbers 
     1.0000   1.0000   1.0000   1.0000   1.0000   1.0000   1.0000   1.0000
     1.0000   1.0000   1.0000   1.0000   1.0000   1.0000   1.0000   1.0000
     1.0000   1.0000   1.0000

     highest occupied level (ev):    -1.9267

!    total energy              =    -247.14478248 Ry
     estimated scf accuracy    <          6.9E-14 Ry

     The total energy is the sum of the following terms:
     one-electron contribution =   -1479.21718469 Ry
     hartree contribution      =     747.26314699 Ry
     xc contribution           =     -36.18653675 Ry
     ewald contribution        =     520.99579196 Ry

     convergence has been achieved in  19 iterations

     Writing output data file ./inse.save/
 
     init_run     :      0.31s CPU      0.44s WALL (       1 calls)
     electrons    :      9.31s CPU      9.90s WALL (       1 calls)

     Called by init_run:
     wfcinit      :      0.12s CPU      0.15s WALL (       1 calls)
     wfcinit:atom :      0.00s CPU      0.00s WALL (      10 calls)
     wfcinit:wfcr :      0.11s CPU      0.13s WALL (      10 calls)
     potinit      :      0.14s CPU      0.14s WALL (       1 calls)
     hinit0       :      0.02s CPU      0.11s WALL (       1 calls)

     Called by electrons:
     c_bands      :      7.97s CPU      8.42s WALL (      20 calls)
     sum_band     :      1.06s CPU      1.09s WALL (      20 calls)
     v_of_rho     :      0.17s CPU      0.18s WALL (      20 calls)
     v_h          :      0.01s CPU      0.01s WALL (      20 calls)
     v_xc         :      0.16s CPU      0.17s WALL (      20 calls)
     mix_rho      :      0.06s CPU      0.06s WALL (      20 calls)

     Called by c_bands:
     init_us_2    :      0.16s CPU      0.17s WALL (     410 calls)
     cegterg      :      7.03s CPU      7.18s WALL (     200 calls)

     Called by sum_band:
     sum_band:wei :      0.00s CPU      0.00s WALL (      20 calls)
     sum_band:loo :      1.02s CPU      1.04s WALL (      20 calls)
     sum_band:buf :      0.01s CPU      0.01s WALL (     200 calls)
     sum_band:ini :      0.09s CPU      0.09s WALL (     200 calls)

     Called by *egterg:
     cdiaghg      :      0.45s CPU      0.48s WALL (    1011 calls)
     cegterg:over :      0.26s CPU      0.26s WALL (     821 calls)
     cegterg:upda :      0.10s CPU      0.10s WALL (     821 calls)
     cegterg:last :      0.13s CPU      0.13s WALL (     517 calls)
     h_psi        :      6.04s CPU      6.17s WALL (    1031 calls)
     g_psi        :      0.02s CPU      0.02s WALL (     821 calls)

     Called by h_psi:
     h_psi:calbec :      0.42s CPU      0.43s WALL (    1031 calls)
     vloc_psi     :      5.32s CPU      5.44s WALL (    1031 calls)
     add_vuspsi   :      0.26s CPU      0.27s WALL (    1031 calls)

     General routines
     calbec       :      0.42s CPU      0.43s WALL (    1031 calls)
     fft          :      0.08s CPU      0.18s WALL (     200 calls)
     ffts         :      0.01s CPU      0.01s WALL (      20 calls)
     fftw         :      5.68s CPU      5.80s WALL (   26876 calls)
 
     Parallel routines
     fft_scatt_xy :      0.60s CPU      0.61s WALL (   27096 calls)
     fft_scatt_yz :      1.65s CPU      1.69s WALL (   27096 calls)
 
     PWSCF        :      9.82s CPU     11.11s WALL

 
   This run was terminated on:  13:15:29  23Nov2021            

=------------------------------------------------------------------------------=
   JOB DONE.
=------------------------------------------------------------------------------=
TACC:  Shutdown complete. Exiting. 
