TACC:  Starting up job 3726884 
TACC:  Starting parallel tasks... 

     Program PHONON v.6.7MaX starts on  3Nov2021 at  4: 3:32 

     This program is part of the open-source Quantum ESPRESSO suite
     for quantum simulation of materials; please cite
         "P. Giannozzi et al., J. Phys.:Condens. Matter 21 395502 (2009);
         "P. Giannozzi et al., J. Phys.:Condens. Matter 29 465901 (2017);
          URL http://www.quantum-espresso.org", 
     in publications or presentations arising from this work. More details at
     http://www.quantum-espresso.org/quote

     Parallel version (MPI), running on   224 processors

     MPI processes distributed on     4 nodes
     K-points division:     npool     =       8
     R & G space division:  proc/nbgrp/npool/nimage =      28
     Waiting for input...
     Reading input from standard input
      Title line not specified: using 'default'.

     Reading xml data from directory:

     ./mos2.save/
     Message from routine read_pp_mesh:
     mesh size missing, using the one in header
     Message from routine read_pp_mesh:
     mesh size missing, using the one in header

     IMPORTANT: XC functional enforced from input :
     Exchange-correlation= PBE
                           (   1   4   3   4   0   0   0)
     Any further DFT definition will be discarded
     Please, verify this is what you really want

 
     Parallelization info
     --------------------
     sticks:   dense  smooth     PW     G-vecs:    dense   smooth      PW
     Min          32      32     10                 4880     4880     824
     Max          33      33     11                 4893     4893     854
     Sum         913     913    283               136861   136861   23317
 
     Reading collected, re-writing distributed wavefunctions

     Calculation of q =    0.0000000   0.0200000   0.0100000

     Subspace diagonalization in iterative solution of the eigenvalue problem:
     a serial algorithm will be used

 
     Parallelization info
     --------------------
     sticks:   dense  smooth     PW     G-vecs:    dense   smooth      PW
     Min          32      32      9                 4880     4880     751
     Max          33      33     10                 4893     4893     782
     Sum         913     913    253               136861   136861   21231
 

     Title: 
     default                                                                    


     bravais-lattice index     =            4
     lattice parameter (alat)  =       6.0189  a.u.
     unit-cell volume          =    1185.7697 (a.u.)^3
     number of atoms/cell      =            3
     number of atomic types    =            2
     number of electrons       =        26.00
     number of Kohn-Sham states=           13
     kinetic-energy cutoff     =      90.0000  Ry
     charge density cutoff     =     360.0000  Ry
     Exchange-correlation= PBE
                           (   1   4   3   4   0   0   0)

     celldm(1)=   6.018946  celldm(2)=   0.000000  celldm(3)=   6.279260
     celldm(4)=   0.000000  celldm(5)=   0.000000  celldm(6)=   0.000000

     crystal axes: (cart. coord. in units of alat)
               a(1) = (   1.000000   0.000000   0.000000 )  
               a(2) = (  -0.500000   0.866025   0.000000 )  
               a(3) = (   0.000000   0.000000   6.279260 )  

     reciprocal axes: (cart. coord. in units 2 pi/alat)
               b(1) = (  1.000000  0.577350  0.000000 )  
               b(2) = (  0.000000  1.154701  0.000000 )  
               b(3) = (  0.000000  0.000000  0.159254 )  


     PseudoPot. # 1 for Mo read from file:
     ./Mo_ONCV_PBE-1.2.upf
     MD5 check sum: 2665c9f4159700498d9a5f7573bd8e9f
     Pseudo is Norm-conserving, Zval = 14.0
     Generated using ONCVPSP code by D. R. Hamann
     Using radial grid of  602 points,  6 beta functions with: 
                l(1) =   0
                l(2) =   0
                l(3) =   1
                l(4) =   1
                l(5) =   2
                l(6) =   2

     PseudoPot. # 2 for S  read from file:
     ./S_ONCV_PBE-1.2.upf
     MD5 check sum: f9d020296ee6110346977bfd66d424f6
     Pseudo is Norm-conserving, Zval =  6.0
     Generated using ONCVPSP code by D. R. Hamann
     Using radial grid of  602 points,  4 beta functions with: 
                l(1) =   0
                l(2) =   0
                l(3) =   1
                l(4) =   1

     atomic species   valence    mass     pseudopotential
        Mo            14.00    95.95000     Mo( 1.00)
        S              6.00    32.06000     S ( 1.00)

     No symmetry found



   Cartesian axes

     site n.     atom                  positions (alat units)
         1           Mo  tau(   1) = (   0.0000000   0.0000000   0.6279260  )
         2           S   tau(   2) = (  -0.0000000   0.5773503   0.1368723  )
         3           S   tau(   3) = (  -0.0000000   0.5773503   1.1189797  )

     number of k points=   288

     Number of k-points >= 100: set verbosity='high' to print them.

     Dense  grid:   136861 G-vectors     FFT dimensions: (  40,  40, 240)

     Estimated max dynamical RAM per process >       6.41 MB

     Estimated total dynamical RAM >       1.40 GB

     The potential is recalculated from file :
     ./_ph0/mos2.save/charge-density

     Starting wfcs are    0 atomic +   13 random wfcs

     Band Structure Calculation
     Davidson diagonalization with overlap

     ethr =  3.85E-11,  avg # of iterations = 32.6

     total cpu time spent up to now is        5.2 secs

     End of band structure calculation

     Number of k-points >= 100: set verbosity='high' to print the bands.

     highest occupied level (ev):    -0.9860

     Writing output data file ./_ph0/mos2.save/

     default                                                                    

     bravais-lattice index     =            4
     lattice parameter (alat)  =       6.0189  a.u.
     unit-cell volume          =    1185.7697 (a.u.)^3
     number of atoms/cell      =            3
     number of atomic types    =            2
     kinetic-energy cut-off    =      90.0000  Ry
     charge density cut-off    =     360.0000  Ry
     convergence threshold     =      1.0E-21
     beta                      =       0.7000
     number of iterations used =            4
     Exchange-correlation= PBE
                           (   1   4   3   4   0   0   0)


     celldm(1)=    6.01895  celldm(2)=    0.00000  celldm(3)=    6.27926
     celldm(4)=    0.00000  celldm(5)=    0.00000  celldm(6)=    0.00000

     crystal axes: (cart. coord. in units of alat)
               a(1) = (  1.0000  0.0000  0.0000 )  
               a(2) = ( -0.5000  0.8660  0.0000 )  
               a(3) = (  0.0000  0.0000  6.2793 )  

     reciprocal axes: (cart. coord. in units 2 pi/alat)
               b(1) = (  1.0000  0.5774  0.0000 )  
               b(2) = (  0.0000  1.1547  0.0000 )  
               b(3) = (  0.0000  0.0000  0.1593 )  


     Atoms inside the unit cell: 

     Cartesian axes

     site n.  atom      mass           positions (alat units)
        1     Mo  95.9500   tau(    1) = (    0.00000    0.00000    0.62793  )
        2     S   32.0600   tau(    2) = (   -0.00000    0.57735    0.13687  )
        3     S   32.0600   tau(    3) = (   -0.00000    0.57735    1.11898  )

     Computing dynamical matrix for 
                    q = (   0.0000000   0.0200000   0.0100000 )
 
     No symmetry!

     G cutoff =  330.3571  (   4884 G-vectors)     FFT grid: ( 40, 40,240)
     number of k points=   288

     PseudoPot. # 1 for Mo read from file:
     ./Mo_ONCV_PBE-1.2.upf
     MD5 check sum: 2665c9f4159700498d9a5f7573bd8e9f
     Pseudo is Norm-conserving, Zval = 14.0
     Generated using ONCVPSP code by D. R. Hamann
     Using radial grid of  602 points,  6 beta functions with: 
                l(1) =   0
                l(2) =   0
                l(3) =   1
                l(4) =   1
                l(5) =   2
                l(6) =   2

     PseudoPot. # 2 for S  read from file:
     ./S_ONCV_PBE-1.2.upf
     MD5 check sum: f9d020296ee6110346977bfd66d424f6
     Pseudo is Norm-conserving, Zval =  6.0
     Generated using ONCVPSP code by D. R. Hamann
     Using radial grid of  602 points,  4 beta functions with: 
                l(1) =   0
                l(2) =   0
                l(3) =   1
                l(4) =   1

     Mode symmetry, C_1 (1)     point group:


     Atomic displacements:
     There are    9 irreducible representations

     Representation     1      1 modes -  To be done

     Representation     2      1 modes -  To be done

     Representation     3      1 modes -  To be done

     Representation     4      1 modes -  To be done

     Representation     5      1 modes -  To be done

     Representation     6      1 modes -  To be done

     Representation     7      1 modes -  To be done

     Representation     8      1 modes -  To be done

     Representation     9      1 modes -  To be done



     Alpha used in Ewald sum =   2.8000
     PHONON       :      5.51s CPU      6.36s WALL



     Representation #   1 mode #   1

     Self-consistent Calculation

      iter #   1 total cpu time :     7.6 secs   av.it.:  10.5
      thresh= 1.000E-02 alpha_mix =  0.700 |ddv_scf|^2 =  5.434E-07

      iter #   2 total cpu time :     9.4 secs   av.it.:  18.9
      thresh= 7.372E-05 alpha_mix =  0.700 |ddv_scf|^2 =  5.302E-08

      iter #   3 total cpu time :    11.2 secs   av.it.:  18.6
      thresh= 2.303E-05 alpha_mix =  0.700 |ddv_scf|^2 =  1.012E-10

      iter #   4 total cpu time :    13.0 secs   av.it.:  19.0
      thresh= 1.006E-06 alpha_mix =  0.700 |ddv_scf|^2 =  1.443E-11

      iter #   5 total cpu time :    14.8 secs   av.it.:  18.6
      thresh= 3.799E-07 alpha_mix =  0.700 |ddv_scf|^2 =  1.776E-10

      iter #   6 total cpu time :    16.4 secs   av.it.:  14.6
      thresh= 1.333E-06 alpha_mix =  0.700 |ddv_scf|^2 =  4.033E-12

      iter #   7 total cpu time :    18.0 secs   av.it.:  16.7
      thresh= 2.008E-07 alpha_mix =  0.700 |ddv_scf|^2 =  1.514E-11

      iter #   8 total cpu time :    19.5 secs   av.it.:  14.3
      thresh= 3.891E-07 alpha_mix =  0.700 |ddv_scf|^2 =  4.342E-14

      iter #   9 total cpu time :    21.3 secs   av.it.:  18.5
      thresh= 2.084E-08 alpha_mix =  0.700 |ddv_scf|^2 =  3.637E-13

      iter #  10 total cpu time :    22.8 secs   av.it.:  15.4
      thresh= 6.031E-08 alpha_mix =  0.700 |ddv_scf|^2 =  4.747E-17

      iter #  11 total cpu time :    24.7 secs   av.it.:  19.0
      thresh= 6.890E-10 alpha_mix =  0.700 |ddv_scf|^2 =  1.170E-16

      iter #  12 total cpu time :    26.4 secs   av.it.:  17.0
      thresh= 1.082E-09 alpha_mix =  0.700 |ddv_scf|^2 =  1.189E-16

      iter #  13 total cpu time :    28.0 secs   av.it.:  16.6
      thresh= 1.090E-09 alpha_mix =  0.700 |ddv_scf|^2 =  1.552E-17

      iter #  14 total cpu time :    29.6 secs   av.it.:  16.8
      thresh= 3.940E-10 alpha_mix =  0.700 |ddv_scf|^2 =  3.624E-18

      iter #  15 total cpu time :    31.3 secs   av.it.:  16.6
      thresh= 1.904E-10 alpha_mix =  0.700 |ddv_scf|^2 =  1.246E-18

      iter #  16 total cpu time :    32.9 secs   av.it.:  16.7
      thresh= 1.116E-10 alpha_mix =  0.700 |ddv_scf|^2 =  1.719E-18

      iter #  17 total cpu time :    34.5 secs   av.it.:  15.6
      thresh= 1.311E-10 alpha_mix =  0.700 |ddv_scf|^2 =  4.687E-19

      iter #  18 total cpu time :    36.0 secs   av.it.:  15.2
      thresh= 6.846E-11 alpha_mix =  0.700 |ddv_scf|^2 =  1.589E-19

      iter #  19 total cpu time :    37.5 secs   av.it.:  14.6
      thresh= 3.987E-11 alpha_mix =  0.700 |ddv_scf|^2 =  1.026E-21

      iter #  20 total cpu time :    39.4 secs   av.it.:  19.4
      thresh= 3.203E-12 alpha_mix =  0.700 |ddv_scf|^2 =  2.486E-20

      iter #  21 total cpu time :    40.8 secs   av.it.:  14.6
      thresh= 1.577E-11 alpha_mix =  0.700 |ddv_scf|^2 =  2.309E-21

      iter #  22 total cpu time :    42.6 secs   av.it.:  16.6
      thresh= 4.805E-12 alpha_mix =  0.700 |ddv_scf|^2 =  3.972E-21

      iter #  23 total cpu time :    44.0 secs   av.it.:  14.7
      thresh= 6.302E-12 alpha_mix =  0.700 |ddv_scf|^2 =  1.114E-21

      iter #  24 total cpu time :    45.7 secs   av.it.:  17.8
      thresh= 3.338E-12 alpha_mix =  0.700 |ddv_scf|^2 =  1.670E-21

      iter #  25 total cpu time :    47.4 secs   av.it.:  16.6
      thresh= 4.087E-12 alpha_mix =  0.700 |ddv_scf|^2 =  1.140E-22

     End of self-consistent calculation

     Convergence has been achieved 


     Representation #   2 mode #   2

     Self-consistent Calculation

      iter #   1 total cpu time :    48.8 secs   av.it.:  11.7
      thresh= 1.000E-02 alpha_mix =  0.700 |ddv_scf|^2 =  2.723E-03

      iter #   2 total cpu time :    50.3 secs   av.it.:  14.7
      thresh= 5.219E-03 alpha_mix =  0.700 |ddv_scf|^2 =  2.860E-02

      iter #   3 total cpu time :    51.7 secs   av.it.:  13.1
      thresh= 1.000E-02 alpha_mix =  0.700 |ddv_scf|^2 =  6.335E-04

      iter #   4 total cpu time :    53.0 secs   av.it.:  13.6
      thresh= 2.517E-03 alpha_mix =  0.700 |ddv_scf|^2 =  6.508E-05

      iter #   5 total cpu time :    54.5 secs   av.it.:  14.8
      thresh= 8.067E-04 alpha_mix =  0.700 |ddv_scf|^2 =  4.680E-06

      iter #   6 total cpu time :    56.0 secs   av.it.:  15.3
      thresh= 2.163E-04 alpha_mix =  0.700 |ddv_scf|^2 =  5.218E-07

      iter #   7 total cpu time :    57.5 secs   av.it.:  13.9
      thresh= 7.223E-05 alpha_mix =  0.700 |ddv_scf|^2 =  3.665E-09

      iter #   8 total cpu time :    59.1 secs   av.it.:  17.1
      thresh= 6.054E-06 alpha_mix =  0.700 |ddv_scf|^2 =  2.068E-09

      iter #   9 total cpu time :    60.7 secs   av.it.:  15.8
      thresh= 4.548E-06 alpha_mix =  0.700 |ddv_scf|^2 =  1.262E-09

      iter #  10 total cpu time :    62.4 secs   av.it.:  16.6
      thresh= 3.553E-06 alpha_mix =  0.700 |ddv_scf|^2 =  1.237E-09

      iter #  11 total cpu time :    64.0 secs   av.it.:  16.5
      thresh= 3.517E-06 alpha_mix =  0.700 |ddv_scf|^2 =  2.747E-09

      iter #  12 total cpu time :    65.6 secs   av.it.:  15.1
      thresh= 5.241E-06 alpha_mix =  0.700 |ddv_scf|^2 =  3.223E-11

      iter #  13 total cpu time :    67.2 secs   av.it.:  15.9
      thresh= 5.677E-07 alpha_mix =  0.700 |ddv_scf|^2 =  1.320E-12

      iter #  14 total cpu time :    68.9 secs   av.it.:  17.5
      thresh= 1.149E-07 alpha_mix =  0.700 |ddv_scf|^2 =  3.719E-12

      iter #  15 total cpu time :    70.5 secs   av.it.:  15.9
      thresh= 1.929E-07 alpha_mix =  0.700 |ddv_scf|^2 =  2.007E-14

      iter #  16 total cpu time :    72.1 secs   av.it.:  16.7
      thresh= 1.417E-08 alpha_mix =  0.700 |ddv_scf|^2 =  5.037E-14

      iter #  17 total cpu time :    73.7 secs   av.it.:  16.4
      thresh= 2.244E-08 alpha_mix =  0.700 |ddv_scf|^2 =  2.158E-14

      iter #  18 total cpu time :    75.3 secs   av.it.:  15.2
      thresh= 1.469E-08 alpha_mix =  0.700 |ddv_scf|^2 =  1.623E-14

      iter #  19 total cpu time :    76.9 secs   av.it.:  16.4
      thresh= 1.274E-08 alpha_mix =  0.700 |ddv_scf|^2 =  3.443E-15

      iter #  20 total cpu time :    78.5 secs   av.it.:  15.6
      thresh= 5.867E-09 alpha_mix =  0.700 |ddv_scf|^2 =  2.763E-16

      iter #  21 total cpu time :    80.1 secs   av.it.:  16.1
      thresh= 1.662E-09 alpha_mix =  0.700 |ddv_scf|^2 =  9.732E-17

      iter #  22 total cpu time :    81.9 secs   av.it.:  18.8
      thresh= 9.865E-10 alpha_mix =  0.700 |ddv_scf|^2 =  2.783E-15

      iter #  23 total cpu time :    83.3 secs   av.it.:  14.0
      thresh= 5.275E-09 alpha_mix =  0.700 |ddv_scf|^2 =  1.775E-16

      iter #  24 total cpu time :    85.0 secs   av.it.:  16.5
      thresh= 1.332E-09 alpha_mix =  0.700 |ddv_scf|^2 =  1.157E-15

      iter #  25 total cpu time :    86.4 secs   av.it.:  14.5
      thresh= 3.401E-09 alpha_mix =  0.700 |ddv_scf|^2 =  6.287E-17

      iter #  26 total cpu time :    88.0 secs   av.it.:  15.3
      thresh= 7.929E-10 alpha_mix =  0.700 |ddv_scf|^2 =  3.868E-17

      iter #  27 total cpu time :    89.6 secs   av.it.:  17.0
      thresh= 6.219E-10 alpha_mix =  0.700 |ddv_scf|^2 =  1.280E-16

      iter #  28 total cpu time :    91.1 secs   av.it.:  14.6
      thresh= 1.131E-09 alpha_mix =  0.700 |ddv_scf|^2 =  2.913E-18

      iter #  29 total cpu time :    92.8 secs   av.it.:  16.9
      thresh= 1.707E-10 alpha_mix =  0.700 |ddv_scf|^2 =  2.705E-18

      iter #  30 total cpu time :    94.4 secs   av.it.:  15.9
      thresh= 1.645E-10 alpha_mix =  0.700 |ddv_scf|^2 =  9.405E-20

      iter #  31 total cpu time :    96.1 secs   av.it.:  16.5
      thresh= 3.067E-11 alpha_mix =  0.700 |ddv_scf|^2 =  1.401E-20

      iter #  32 total cpu time :    97.7 secs   av.it.:  16.5
      thresh= 1.184E-11 alpha_mix =  0.700 |ddv_scf|^2 =  6.077E-21

      iter #  33 total cpu time :    99.3 secs   av.it.:  15.9
      thresh= 7.795E-12 alpha_mix =  0.700 |ddv_scf|^2 =  7.349E-21

      iter #  34 total cpu time :   100.8 secs   av.it.:  14.6
      thresh= 8.573E-12 alpha_mix =  0.700 |ddv_scf|^2 =  1.457E-21

      iter #  35 total cpu time :   102.5 secs   av.it.:  16.4
      thresh= 3.817E-12 alpha_mix =  0.700 |ddv_scf|^2 =  1.091E-21

      iter #  36 total cpu time :   104.1 secs   av.it.:  16.5
      thresh= 3.303E-12 alpha_mix =  0.700 |ddv_scf|^2 =  2.345E-22

     End of self-consistent calculation

     Convergence has been achieved 


     Representation #   3 mode #   3

     Self-consistent Calculation

      iter #   1 total cpu time :   105.6 secs   av.it.:  12.5
      thresh= 1.000E-02 alpha_mix =  0.700 |ddv_scf|^2 =  4.413E-03

      iter #   2 total cpu time :   107.2 secs   av.it.:  16.3
      thresh= 6.643E-03 alpha_mix =  0.700 |ddv_scf|^2 =  2.018E-01

      iter #   3 total cpu time :   108.7 secs   av.it.:  14.9
      thresh= 1.000E-02 alpha_mix =  0.700 |ddv_scf|^2 =  1.619E-03

      iter #   4 total cpu time :   110.1 secs   av.it.:  13.8
      thresh= 4.023E-03 alpha_mix =  0.700 |ddv_scf|^2 =  3.970E-04

      iter #   5 total cpu time :   111.5 secs   av.it.:  13.6
      thresh= 1.993E-03 alpha_mix =  0.700 |ddv_scf|^2 =  1.688E-05

      iter #   6 total cpu time :   113.0 secs   av.it.:  15.1
      thresh= 4.108E-04 alpha_mix =  0.700 |ddv_scf|^2 =  3.100E-07

      iter #   7 total cpu time :   114.8 secs   av.it.:  17.7
      thresh= 5.568E-05 alpha_mix =  0.700 |ddv_scf|^2 =  1.845E-07

      iter #   8 total cpu time :   116.2 secs   av.it.:  14.8
      thresh= 4.295E-05 alpha_mix =  0.700 |ddv_scf|^2 =  4.233E-09

      iter #   9 total cpu time :   117.6 secs   av.it.:  12.8
      thresh= 6.506E-06 alpha_mix =  0.700 |ddv_scf|^2 =  6.799E-10

      iter #  10 total cpu time :   119.2 secs   av.it.:  16.8
      thresh= 2.608E-06 alpha_mix =  0.700 |ddv_scf|^2 =  5.872E-10

      iter #  11 total cpu time :   120.8 secs   av.it.:  15.6
      thresh= 2.423E-06 alpha_mix =  0.700 |ddv_scf|^2 =  2.016E-11

      iter #  12 total cpu time :   122.5 secs   av.it.:  16.5
      thresh= 4.490E-07 alpha_mix =  0.700 |ddv_scf|^2 =  2.105E-11

      iter #  13 total cpu time :   124.1 secs   av.it.:  15.6
      thresh= 4.588E-07 alpha_mix =  0.700 |ddv_scf|^2 =  6.402E-12

      iter #  14 total cpu time :   125.7 secs   av.it.:  16.4
      thresh= 2.530E-07 alpha_mix =  0.700 |ddv_scf|^2 =  2.276E-12

      iter #  15 total cpu time :   127.3 secs   av.it.:  16.7
      thresh= 1.509E-07 alpha_mix =  0.700 |ddv_scf|^2 =  9.403E-13

      iter #  16 total cpu time :   129.0 secs   av.it.:  16.5
      thresh= 9.697E-08 alpha_mix =  0.700 |ddv_scf|^2 =  3.194E-12

      iter #  17 total cpu time :   130.3 secs   av.it.:  13.6
      thresh= 1.787E-07 alpha_mix =  0.700 |ddv_scf|^2 =  4.632E-13

      iter #  18 total cpu time :   131.8 secs   av.it.:  14.6
      thresh= 6.806E-08 alpha_mix =  0.700 |ddv_scf|^2 =  1.529E-13

      iter #  19 total cpu time :   133.5 secs   av.it.:  16.9
      thresh= 3.911E-08 alpha_mix =  0.700 |ddv_scf|^2 =  5.870E-13

      iter #  20 total cpu time :   135.0 secs   av.it.:  14.7
      thresh= 7.661E-08 alpha_mix =  0.700 |ddv_scf|^2 =  5.739E-14

      iter #  21 total cpu time :   136.6 secs   av.it.:  15.8
      thresh= 2.396E-08 alpha_mix =  0.700 |ddv_scf|^2 =  2.289E-14

      iter #  22 total cpu time :   138.0 secs   av.it.:  14.4
      thresh= 1.513E-08 alpha_mix =  0.700 |ddv_scf|^2 =  1.320E-15

      iter #  23 total cpu time :   139.5 secs   av.it.:  15.0
      thresh= 3.634E-09 alpha_mix =  0.700 |ddv_scf|^2 =  1.133E-16

      iter #  24 total cpu time :   141.2 secs   av.it.:  16.6
      thresh= 1.064E-09 alpha_mix =  0.700 |ddv_scf|^2 =  2.352E-17

      iter #  25 total cpu time :   142.8 secs   av.it.:  15.5
      thresh= 4.850E-10 alpha_mix =  0.700 |ddv_scf|^2 =  3.760E-18

      iter #  26 total cpu time :   144.4 secs   av.it.:  16.6
      thresh= 1.939E-10 alpha_mix =  0.700 |ddv_scf|^2 =  1.106E-19

      iter #  27 total cpu time :   146.2 secs   av.it.:  18.4
      thresh= 3.326E-11 alpha_mix =  0.700 |ddv_scf|^2 =  7.519E-19

      iter #  28 total cpu time :   147.7 secs   av.it.:  15.0
      thresh= 8.671E-11 alpha_mix =  0.700 |ddv_scf|^2 =  9.579E-20

      iter #  29 total cpu time :   149.4 secs   av.it.:  16.6
      thresh= 3.095E-11 alpha_mix =  0.700 |ddv_scf|^2 =  3.381E-19

      iter #  30 total cpu time :   150.9 secs   av.it.:  15.5
      thresh= 5.815E-11 alpha_mix =  0.700 |ddv_scf|^2 =  2.184E-20

      iter #  31 total cpu time :   152.6 secs   av.it.:  17.5
      thresh= 1.478E-11 alpha_mix =  0.700 |ddv_scf|^2 =  1.343E-19

      iter #  32 total cpu time :   154.1 secs   av.it.:  14.6
      thresh= 3.664E-11 alpha_mix =  0.700 |ddv_scf|^2 =  5.872E-21

      iter #  33 total cpu time :   155.9 secs   av.it.:  17.9
      thresh= 7.663E-12 alpha_mix =  0.700 |ddv_scf|^2 =  1.468E-20

      iter #  34 total cpu time :   157.5 secs   av.it.:  16.4
      thresh= 1.212E-11 alpha_mix =  0.700 |ddv_scf|^2 =  1.495E-21

      iter #  35 total cpu time :   159.1 secs   av.it.:  15.5
      thresh= 3.867E-12 alpha_mix =  0.700 |ddv_scf|^2 =  2.240E-22

     End of self-consistent calculation

     Convergence has been achieved 


     Representation #   4 mode #   4

     Self-consistent Calculation

      iter #   1 total cpu time :   160.2 secs   av.it.:   9.2
      thresh= 1.000E-02 alpha_mix =  0.700 |ddv_scf|^2 =  2.903E-08

      iter #   2 total cpu time :   162.2 secs   av.it.:  21.3
      thresh= 1.704E-05 alpha_mix =  0.700 |ddv_scf|^2 =  2.511E-09

      iter #   3 total cpu time :   164.2 secs   av.it.:  21.0
      thresh= 5.011E-06 alpha_mix =  0.700 |ddv_scf|^2 =  3.511E-11

      iter #   4 total cpu time :   166.1 secs   av.it.:  20.0
      thresh= 5.925E-07 alpha_mix =  0.700 |ddv_scf|^2 =  1.167E-10

      iter #   5 total cpu time :   167.6 secs   av.it.:  14.8
      thresh= 1.080E-06 alpha_mix =  0.700 |ddv_scf|^2 =  4.915E-11

      iter #   6 total cpu time :   169.2 secs   av.it.:  17.0
      thresh= 7.011E-07 alpha_mix =  0.700 |ddv_scf|^2 =  9.542E-12

      iter #   7 total cpu time :   170.8 secs   av.it.:  16.2
      thresh= 3.089E-07 alpha_mix =  0.700 |ddv_scf|^2 =  4.769E-12

      iter #   8 total cpu time :   172.5 secs   av.it.:  16.3
      thresh= 2.184E-07 alpha_mix =  0.700 |ddv_scf|^2 =  1.802E-13

      iter #   9 total cpu time :   174.1 secs   av.it.:  16.6
      thresh= 4.245E-08 alpha_mix =  0.700 |ddv_scf|^2 =  5.374E-14

      iter #  10 total cpu time :   175.7 secs   av.it.:  16.4
      thresh= 2.318E-08 alpha_mix =  0.700 |ddv_scf|^2 =  3.635E-15

      iter #  11 total cpu time :   177.4 secs   av.it.:  16.7
      thresh= 6.029E-09 alpha_mix =  0.700 |ddv_scf|^2 =  1.183E-15

      iter #  12 total cpu time :   179.0 secs   av.it.:  16.7
      thresh= 3.439E-09 alpha_mix =  0.700 |ddv_scf|^2 =  1.233E-16

      iter #  13 total cpu time :   180.6 secs   av.it.:  16.3
      thresh= 1.110E-09 alpha_mix =  0.700 |ddv_scf|^2 =  3.868E-19

      iter #  14 total cpu time :   182.4 secs   av.it.:  19.5
      thresh= 6.219E-11 alpha_mix =  0.700 |ddv_scf|^2 =  5.589E-19

      iter #  15 total cpu time :   184.1 secs   av.it.:  17.6
      thresh= 7.476E-11 alpha_mix =  0.700 |ddv_scf|^2 =  1.364E-18

      iter #  16 total cpu time :   185.7 secs   av.it.:  15.5
      thresh= 1.168E-10 alpha_mix =  0.700 |ddv_scf|^2 =  1.807E-20

      iter #  17 total cpu time :   187.4 secs   av.it.:  18.2
      thresh= 1.344E-11 alpha_mix =  0.700 |ddv_scf|^2 =  4.202E-20

      iter #  18 total cpu time :   189.0 secs   av.it.:  16.2
      thresh= 2.050E-11 alpha_mix =  0.700 |ddv_scf|^2 =  6.835E-21

      iter #  19 total cpu time :   190.7 secs   av.it.:  16.6
      thresh= 8.267E-12 alpha_mix =  0.700 |ddv_scf|^2 =  8.245E-21

      iter #  20 total cpu time :   192.3 secs   av.it.:  17.0
      thresh= 9.080E-12 alpha_mix =  0.700 |ddv_scf|^2 =  1.512E-20

      iter #  21 total cpu time :   193.9 secs   av.it.:  15.9
      thresh= 1.230E-11 alpha_mix =  0.700 |ddv_scf|^2 =  2.139E-21

      iter #  22 total cpu time :   195.5 secs   av.it.:  15.2
      thresh= 4.625E-12 alpha_mix =  0.700 |ddv_scf|^2 =  3.202E-22

     End of self-consistent calculation

     Convergence has been achieved 


     Representation #   5 mode #   5

     Self-consistent Calculation

      iter #   1 total cpu time :   196.7 secs   av.it.:   9.9
      thresh= 1.000E-02 alpha_mix =  0.700 |ddv_scf|^2 =  4.165E-04

      iter #   2 total cpu time :   198.2 secs   av.it.:  14.5
      thresh= 2.041E-03 alpha_mix =  0.700 |ddv_scf|^2 =  4.293E-03

      iter #   3 total cpu time :   199.4 secs   av.it.:  11.9
      thresh= 6.552E-03 alpha_mix =  0.700 |ddv_scf|^2 =  1.591E-04

      iter #   4 total cpu time :   200.7 secs   av.it.:  12.9
      thresh= 1.261E-03 alpha_mix =  0.700 |ddv_scf|^2 =  1.320E-06

      iter #   5 total cpu time :   202.4 secs   av.it.:  16.5
      thresh= 1.149E-04 alpha_mix =  0.700 |ddv_scf|^2 =  6.776E-07

      iter #   6 total cpu time :   203.9 secs   av.it.:  15.0
      thresh= 8.232E-05 alpha_mix =  0.700 |ddv_scf|^2 =  6.164E-10

      iter #   7 total cpu time :   205.7 secs   av.it.:  18.9
      thresh= 2.483E-06 alpha_mix =  0.700 |ddv_scf|^2 =  2.478E-09

      iter #   8 total cpu time :   207.2 secs   av.it.:  14.8
      thresh= 4.977E-06 alpha_mix =  0.700 |ddv_scf|^2 =  9.566E-10

      iter #   9 total cpu time :   208.9 secs   av.it.:  16.8
      thresh= 3.093E-06 alpha_mix =  0.700 |ddv_scf|^2 =  7.020E-10

      iter #  10 total cpu time :   210.3 secs   av.it.:  14.6
      thresh= 2.650E-06 alpha_mix =  0.700 |ddv_scf|^2 =  4.249E-12

      iter #  11 total cpu time :   212.2 secs   av.it.:  18.8
      thresh= 2.061E-07 alpha_mix =  0.700 |ddv_scf|^2 =  4.911E-11

      iter #  12 total cpu time :   213.5 secs   av.it.:  13.4
      thresh= 7.008E-07 alpha_mix =  0.700 |ddv_scf|^2 =  1.986E-11

      iter #  13 total cpu time :   215.2 secs   av.it.:  14.9
      thresh= 4.457E-07 alpha_mix =  0.700 |ddv_scf|^2 =  3.785E-13

      iter #  14 total cpu time :   216.9 secs   av.it.:  17.6
      thresh= 6.152E-08 alpha_mix =  0.700 |ddv_scf|^2 =  1.689E-13

      iter #  15 total cpu time :   218.9 secs   av.it.:  16.7
      thresh= 4.109E-08 alpha_mix =  0.700 |ddv_scf|^2 =  5.245E-14

      iter #  16 total cpu time :   220.5 secs   av.it.:  16.5
      thresh= 2.290E-08 alpha_mix =  0.700 |ddv_scf|^2 =  2.213E-15

      iter #  17 total cpu time :   222.2 secs   av.it.:  17.3
      thresh= 4.705E-09 alpha_mix =  0.700 |ddv_scf|^2 =  2.141E-15

      iter #  18 total cpu time :   223.5 secs   av.it.:  13.0
      thresh= 4.627E-09 alpha_mix =  0.700 |ddv_scf|^2 =  1.489E-15

      iter #  19 total cpu time :   224.9 secs   av.it.:  13.6
      thresh= 3.859E-09 alpha_mix =  0.700 |ddv_scf|^2 =  3.811E-16

      iter #  20 total cpu time :   226.3 secs   av.it.:  13.0
      thresh= 1.952E-09 alpha_mix =  0.700 |ddv_scf|^2 =  1.973E-16

      iter #  21 total cpu time :   227.9 secs   av.it.:  15.6
      thresh= 1.405E-09 alpha_mix =  0.700 |ddv_scf|^2 =  1.556E-17

      iter #  22 total cpu time :   229.3 secs   av.it.:  14.6
      thresh= 3.945E-10 alpha_mix =  0.700 |ddv_scf|^2 =  2.195E-18

      iter #  23 total cpu time :   230.9 secs   av.it.:  15.9
      thresh= 1.481E-10 alpha_mix =  0.700 |ddv_scf|^2 =  7.883E-18

      iter #  24 total cpu time :   232.5 secs   av.it.:  14.8
      thresh= 2.808E-10 alpha_mix =  0.700 |ddv_scf|^2 =  5.169E-19

      iter #  25 total cpu time :   233.9 secs   av.it.:  14.6
      thresh= 7.189E-11 alpha_mix =  0.700 |ddv_scf|^2 =  1.083E-19

      iter #  26 total cpu time :   235.4 secs   av.it.:  15.1
      thresh= 3.291E-11 alpha_mix =  0.700 |ddv_scf|^2 =  8.336E-20

      iter #  27 total cpu time :   237.0 secs   av.it.:  15.2
      thresh= 2.887E-11 alpha_mix =  0.700 |ddv_scf|^2 =  9.583E-20

      iter #  28 total cpu time :   238.6 secs   av.it.:  16.3
      thresh= 3.096E-11 alpha_mix =  0.700 |ddv_scf|^2 =  1.230E-19

      iter #  29 total cpu time :   240.5 secs   av.it.:  19.3
      thresh= 3.507E-11 alpha_mix =  0.700 |ddv_scf|^2 =  9.865E-18

      iter #  30 total cpu time :   241.9 secs   av.it.:  13.8
      thresh= 3.141E-10 alpha_mix =  0.700 |ddv_scf|^2 =  4.665E-20

      iter #  31 total cpu time :   243.4 secs   av.it.:  15.1
      thresh= 2.160E-11 alpha_mix =  0.700 |ddv_scf|^2 =  3.307E-21

      iter #  32 total cpu time :   245.2 secs   av.it.:  18.6
      thresh= 5.750E-12 alpha_mix =  0.700 |ddv_scf|^2 =  9.746E-20

      iter #  33 total cpu time :   246.7 secs   av.it.:  14.7
      thresh= 3.122E-11 alpha_mix =  0.700 |ddv_scf|^2 =  1.053E-20

      iter #  34 total cpu time :   248.3 secs   av.it.:  15.3
      thresh= 1.026E-11 alpha_mix =  0.700 |ddv_scf|^2 =  3.813E-22

     End of self-consistent calculation

     Convergence has been achieved 


     Representation #   6 mode #   6

     Self-consistent Calculation

      iter #   1 total cpu time :   249.6 secs   av.it.:  10.9
      thresh= 1.000E-02 alpha_mix =  0.700 |ddv_scf|^2 =  4.044E-04

      iter #   2 total cpu time :   251.3 secs   av.it.:  17.2
      thresh= 2.011E-03 alpha_mix =  0.700 |ddv_scf|^2 =  1.284E-02

      iter #   3 total cpu time :   252.6 secs   av.it.:  13.2
      thresh= 1.000E-02 alpha_mix =  0.700 |ddv_scf|^2 =  2.215E-05

      iter #   4 total cpu time :   254.2 secs   av.it.:  15.6
      thresh= 4.706E-04 alpha_mix =  0.700 |ddv_scf|^2 =  3.365E-06

      iter #   5 total cpu time :   255.8 secs   av.it.:  16.0
      thresh= 1.835E-04 alpha_mix =  0.700 |ddv_scf|^2 =  1.942E-06

      iter #   6 total cpu time :   257.4 secs   av.it.:  16.5
      thresh= 1.393E-04 alpha_mix =  0.700 |ddv_scf|^2 =  3.968E-07

      iter #   7 total cpu time :   259.0 secs   av.it.:  16.0
      thresh= 6.300E-05 alpha_mix =  0.700 |ddv_scf|^2 =  4.351E-08

      iter #   8 total cpu time :   260.5 secs   av.it.:  15.2
      thresh= 2.086E-05 alpha_mix =  0.700 |ddv_scf|^2 =  1.108E-08

      iter #   9 total cpu time :   262.0 secs   av.it.:  14.9
      thresh= 1.053E-05 alpha_mix =  0.700 |ddv_scf|^2 =  5.494E-09

      iter #  10 total cpu time :   263.7 secs   av.it.:  16.5
      thresh= 7.412E-06 alpha_mix =  0.700 |ddv_scf|^2 =  4.255E-09

      iter #  11 total cpu time :   265.4 secs   av.it.:  15.7
      thresh= 6.523E-06 alpha_mix =  0.700 |ddv_scf|^2 =  1.824E-10

      iter #  12 total cpu time :   267.1 secs   av.it.:  17.3
      thresh= 1.350E-06 alpha_mix =  0.700 |ddv_scf|^2 =  7.304E-11

      iter #  13 total cpu time :   268.8 secs   av.it.:  17.3
      thresh= 8.547E-07 alpha_mix =  0.700 |ddv_scf|^2 =  5.697E-11

      iter #  14 total cpu time :   270.5 secs   av.it.:  16.3
      thresh= 7.548E-07 alpha_mix =  0.700 |ddv_scf|^2 =  2.085E-11

      iter #  15 total cpu time :   271.9 secs   av.it.:  14.7
      thresh= 4.566E-07 alpha_mix =  0.700 |ddv_scf|^2 =  1.208E-12

      iter #  16 total cpu time :   273.5 secs   av.it.:  15.6
      thresh= 1.099E-07 alpha_mix =  0.700 |ddv_scf|^2 =  2.493E-13

      iter #  17 total cpu time :   274.9 secs   av.it.:  14.0
      thresh= 4.993E-08 alpha_mix =  0.700 |ddv_scf|^2 =  4.934E-14

      iter #  18 total cpu time :   276.4 secs   av.it.:  14.5
      thresh= 2.221E-08 alpha_mix =  0.700 |ddv_scf|^2 =  7.079E-15

      iter #  19 total cpu time :   277.9 secs   av.it.:  15.4
      thresh= 8.414E-09 alpha_mix =  0.700 |ddv_scf|^2 =  5.002E-16

      iter #  20 total cpu time :   279.6 secs   av.it.:  16.6
      thresh= 2.237E-09 alpha_mix =  0.700 |ddv_scf|^2 =  6.814E-16

      iter #  21 total cpu time :   281.1 secs   av.it.:  15.5
      thresh= 2.610E-09 alpha_mix =  0.700 |ddv_scf|^2 =  1.747E-16

      iter #  22 total cpu time :   282.7 secs   av.it.:  15.5
      thresh= 1.322E-09 alpha_mix =  0.700 |ddv_scf|^2 =  1.071E-17

      iter #  23 total cpu time :   284.0 secs   av.it.:  12.9
      thresh= 3.272E-10 alpha_mix =  0.700 |ddv_scf|^2 =  2.058E-18

      iter #  24 total cpu time :   285.5 secs   av.it.:  14.9
      thresh= 1.434E-10 alpha_mix =  0.700 |ddv_scf|^2 =  1.506E-19

      iter #  25 total cpu time :   287.2 secs   av.it.:  16.8
      thresh= 3.881E-11 alpha_mix =  0.700 |ddv_scf|^2 =  2.118E-19

      iter #  26 total cpu time :   288.8 secs   av.it.:  16.2
      thresh= 4.602E-11 alpha_mix =  0.700 |ddv_scf|^2 =  2.913E-20

      iter #  27 total cpu time :   290.3 secs   av.it.:  13.9
      thresh= 1.707E-11 alpha_mix =  0.700 |ddv_scf|^2 =  3.766E-21

      iter #  28 total cpu time :   291.8 secs   av.it.:  15.5
      thresh= 6.137E-12 alpha_mix =  0.700 |ddv_scf|^2 =  5.226E-22

     End of self-consistent calculation

     Convergence has been achieved 


     Representation #   7 mode #   7

     Self-consistent Calculation

      iter #   1 total cpu time :   293.0 secs   av.it.:   9.2
      thresh= 1.000E-02 alpha_mix =  0.700 |ddv_scf|^2 =  2.904E-08

      iter #   2 total cpu time :   295.0 secs   av.it.:  21.3
      thresh= 1.704E-05 alpha_mix =  0.700 |ddv_scf|^2 =  2.514E-09

      iter #   3 total cpu time :   297.0 secs   av.it.:  20.9
      thresh= 5.014E-06 alpha_mix =  0.700 |ddv_scf|^2 =  4.779E-11

      iter #   4 total cpu time :   298.9 secs   av.it.:  19.6
      thresh= 6.913E-07 alpha_mix =  0.700 |ddv_scf|^2 =  3.941E-10

      iter #   5 total cpu time :   300.3 secs   av.it.:  14.0
      thresh= 1.985E-06 alpha_mix =  0.700 |ddv_scf|^2 =  3.737E-11

      iter #   6 total cpu time :   303.6 secs   av.it.:  17.7
      thresh= 6.113E-07 alpha_mix =  0.700 |ddv_scf|^2 =  3.530E-11

      iter #   7 total cpu time :   305.5 secs   av.it.:  15.5
      thresh= 5.941E-07 alpha_mix =  0.700 |ddv_scf|^2 =  5.656E-12

      iter #   8 total cpu time :   316.4 secs   av.it.:  16.5
      thresh= 2.378E-07 alpha_mix =  0.700 |ddv_scf|^2 =  7.708E-13

      iter #   9 total cpu time :   318.0 secs   av.it.:  15.7
      thresh= 8.779E-08 alpha_mix =  0.700 |ddv_scf|^2 =  1.098E-14

      iter #  10 total cpu time :   319.7 secs   av.it.:  18.0
      thresh= 1.048E-08 alpha_mix =  0.700 |ddv_scf|^2 =  1.676E-14

      iter #  11 total cpu time :   321.3 secs   av.it.:  15.6
      thresh= 1.294E-08 alpha_mix =  0.700 |ddv_scf|^2 =  7.799E-16

      iter #  12 total cpu time :   322.9 secs   av.it.:  16.8
      thresh= 2.793E-09 alpha_mix =  0.700 |ddv_scf|^2 =  3.575E-16

      iter #  13 total cpu time :   324.5 secs   av.it.:  16.4
      thresh= 1.891E-09 alpha_mix =  0.700 |ddv_scf|^2 =  8.632E-18

      iter #  14 total cpu time :   326.1 secs   av.it.:  16.3
      thresh= 2.938E-10 alpha_mix =  0.700 |ddv_scf|^2 =  1.629E-17

      iter #  15 total cpu time :   327.6 secs   av.it.:  14.6
      thresh= 4.037E-10 alpha_mix =  0.700 |ddv_scf|^2 =  7.280E-19

      iter #  16 total cpu time :   329.2 secs   av.it.:  15.7
      thresh= 8.532E-11 alpha_mix =  0.700 |ddv_scf|^2 =  5.106E-20

      iter #  17 total cpu time :   330.9 secs   av.it.:  17.3
      thresh= 2.260E-11 alpha_mix =  0.700 |ddv_scf|^2 =  2.055E-20

      iter #  18 total cpu time :   332.5 secs   av.it.:  15.9
      thresh= 1.433E-11 alpha_mix =  0.700 |ddv_scf|^2 =  2.027E-21

      iter #  19 total cpu time :   334.2 secs   av.it.:  18.1
      thresh= 4.502E-12 alpha_mix =  0.700 |ddv_scf|^2 =  9.094E-21

      iter #  20 total cpu time :   336.0 secs   av.it.:  16.3
      thresh= 9.536E-12 alpha_mix =  0.700 |ddv_scf|^2 =  4.177E-22

     End of self-consistent calculation

     Convergence has been achieved 


     Representation #   8 mode #   8

     Self-consistent Calculation

      iter #   1 total cpu time :   337.2 secs   av.it.:   9.9
      thresh= 1.000E-02 alpha_mix =  0.700 |ddv_scf|^2 =  4.171E-04

      iter #   2 total cpu time :   338.6 secs   av.it.:  14.5
      thresh= 2.042E-03 alpha_mix =  0.700 |ddv_scf|^2 =  4.303E-03

      iter #   3 total cpu time :   339.9 secs   av.it.:  11.9
      thresh= 6.560E-03 alpha_mix =  0.700 |ddv_scf|^2 =  1.585E-04

      iter #   4 total cpu time :   341.2 secs   av.it.:  12.9
      thresh= 1.259E-03 alpha_mix =  0.700 |ddv_scf|^2 =  1.683E-06

      iter #   5 total cpu time :   342.8 secs   av.it.:  16.2
      thresh= 1.297E-04 alpha_mix =  0.700 |ddv_scf|^2 =  6.401E-07

      iter #   6 total cpu time :   344.3 secs   av.it.:  15.1
      thresh= 8.001E-05 alpha_mix =  0.700 |ddv_scf|^2 =  4.259E-09

      iter #   7 total cpu time :   346.0 secs   av.it.:  16.9
      thresh= 6.526E-06 alpha_mix =  0.700 |ddv_scf|^2 =  3.012E-09

      iter #   8 total cpu time :   347.7 secs   av.it.:  14.6
      thresh= 5.489E-06 alpha_mix =  0.700 |ddv_scf|^2 =  1.090E-09

      iter #   9 total cpu time :   349.8 secs   av.it.:  16.6
      thresh= 3.302E-06 alpha_mix =  0.700 |ddv_scf|^2 =  6.113E-10

      iter #  10 total cpu time :   360.8 secs   av.it.:  14.7
      thresh= 2.472E-06 alpha_mix =  0.700 |ddv_scf|^2 =  3.499E-12

      iter #  11 total cpu time :   362.6 secs   av.it.:  18.6
      thresh= 1.871E-07 alpha_mix =  0.700 |ddv_scf|^2 =  4.320E-11

      iter #  12 total cpu time :   364.0 secs   av.it.:  13.8
      thresh= 6.572E-07 alpha_mix =  0.700 |ddv_scf|^2 =  2.743E-11

      iter #  13 total cpu time :   365.5 secs   av.it.:  15.5
      thresh= 5.237E-07 alpha_mix =  0.700 |ddv_scf|^2 =  9.727E-12

      iter #  14 total cpu time :   367.1 secs   av.it.:  15.8
      thresh= 3.119E-07 alpha_mix =  0.700 |ddv_scf|^2 =  8.427E-13

      iter #  15 total cpu time :   368.8 secs   av.it.:  17.0
      thresh= 9.180E-08 alpha_mix =  0.700 |ddv_scf|^2 =  1.577E-12

      iter #  16 total cpu time :   370.4 secs   av.it.:  15.7
      thresh= 1.256E-07 alpha_mix =  0.700 |ddv_scf|^2 =  4.970E-13

      iter #  17 total cpu time :   371.9 secs   av.it.:  14.7
      thresh= 7.050E-08 alpha_mix =  0.700 |ddv_scf|^2 =  3.109E-13

      iter #  18 total cpu time :   373.1 secs   av.it.:  10.2
      thresh= 5.576E-08 alpha_mix =  0.700 |ddv_scf|^2 =  2.764E-13

      iter #  19 total cpu time :   374.4 secs   av.it.:  13.1
      thresh= 5.257E-08 alpha_mix =  0.700 |ddv_scf|^2 =  1.401E-13

      iter #  20 total cpu time :   376.1 secs   av.it.:  16.2
      thresh= 3.743E-08 alpha_mix =  0.700 |ddv_scf|^2 =  9.954E-14

      iter #  21 total cpu time :   377.8 secs   av.it.:  14.7
      thresh= 3.155E-08 alpha_mix =  0.700 |ddv_scf|^2 =  1.847E-15

      iter #  22 total cpu time :   379.1 secs   av.it.:  13.7
      thresh= 4.297E-09 alpha_mix =  0.700 |ddv_scf|^2 =  6.314E-17

      iter #  23 total cpu time :   380.8 secs   av.it.:  16.7
      thresh= 7.946E-10 alpha_mix =  0.700 |ddv_scf|^2 =  5.503E-17

      iter #  24 total cpu time :   382.4 secs   av.it.:  16.5
      thresh= 7.418E-10 alpha_mix =  0.700 |ddv_scf|^2 =  3.773E-17

      iter #  25 total cpu time :   384.0 secs   av.it.:  15.4
      thresh= 6.142E-10 alpha_mix =  0.700 |ddv_scf|^2 =  4.971E-17

      iter #  26 total cpu time :   385.3 secs   av.it.:  13.6
      thresh= 7.050E-10 alpha_mix =  0.700 |ddv_scf|^2 =  3.633E-17

      iter #  27 total cpu time :   386.8 secs   av.it.:  14.9
      thresh= 6.028E-10 alpha_mix =  0.700 |ddv_scf|^2 =  5.843E-17

      iter #  28 total cpu time :   388.5 secs   av.it.:  16.6
      thresh= 7.644E-10 alpha_mix =  0.700 |ddv_scf|^2 =  2.443E-16

      iter #  29 total cpu time :   390.1 secs   av.it.:  15.6
      thresh= 1.563E-09 alpha_mix =  0.700 |ddv_scf|^2 =  3.490E-16

      iter #  30 total cpu time :   391.5 secs   av.it.:  13.7
      thresh= 1.868E-09 alpha_mix =  0.700 |ddv_scf|^2 =  1.389E-16

      iter #  31 total cpu time :   393.3 secs   av.it.:  17.5
      thresh= 1.179E-09 alpha_mix =  0.700 |ddv_scf|^2 =  8.547E-16

      iter #  32 total cpu time :   394.7 secs   av.it.:  14.1
      thresh= 2.923E-09 alpha_mix =  0.700 |ddv_scf|^2 =  7.818E-18

      iter #  33 total cpu time :   396.3 secs   av.it.:  15.4
      thresh= 2.796E-10 alpha_mix =  0.700 |ddv_scf|^2 =  2.109E-18

      iter #  34 total cpu time :   397.8 secs   av.it.:  14.7
      thresh= 1.452E-10 alpha_mix =  0.700 |ddv_scf|^2 =  1.097E-19

      iter #  35 total cpu time :   399.4 secs   av.it.:  16.7
      thresh= 3.312E-11 alpha_mix =  0.700 |ddv_scf|^2 =  8.542E-20

      iter #  36 total cpu time :   401.0 secs   av.it.:  15.4
      thresh= 2.923E-11 alpha_mix =  0.700 |ddv_scf|^2 =  2.324E-22

     End of self-consistent calculation

     Convergence has been achieved 


     Representation #   9 mode #   9

     Self-consistent Calculation

      iter #   1 total cpu time :   402.3 secs   av.it.:  10.9
      thresh= 1.000E-02 alpha_mix =  0.700 |ddv_scf|^2 =  4.040E-04

      iter #   2 total cpu time :   404.0 secs   av.it.:  17.2
      thresh= 2.010E-03 alpha_mix =  0.700 |ddv_scf|^2 =  1.282E-02

      iter #   3 total cpu time :   405.4 secs   av.it.:  13.2
      thresh= 1.000E-02 alpha_mix =  0.700 |ddv_scf|^2 =  2.210E-05

      iter #   4 total cpu time :   406.9 secs   av.it.:  15.5
      thresh= 4.701E-04 alpha_mix =  0.700 |ddv_scf|^2 =  3.348E-06

      iter #   5 total cpu time :   408.5 secs   av.it.:  16.0
      thresh= 1.830E-04 alpha_mix =  0.700 |ddv_scf|^2 =  1.961E-06

      iter #   6 total cpu time :   410.1 secs   av.it.:  16.5
      thresh= 1.400E-04 alpha_mix =  0.700 |ddv_scf|^2 =  4.040E-07

      iter #   7 total cpu time :   412.5 secs   av.it.:  15.9
      thresh= 6.356E-05 alpha_mix =  0.700 |ddv_scf|^2 =  3.880E-08

      iter #   8 total cpu time :   414.5 secs   av.it.:  15.3
      thresh= 1.970E-05 alpha_mix =  0.700 |ddv_scf|^2 =  1.087E-08

      iter #   9 total cpu time :   425.3 secs   av.it.:  15.0
      thresh= 1.043E-05 alpha_mix =  0.700 |ddv_scf|^2 =  5.762E-09

      iter #  10 total cpu time :   427.0 secs   av.it.:  16.5
      thresh= 7.591E-06 alpha_mix =  0.700 |ddv_scf|^2 =  4.774E-09

      iter #  11 total cpu time :   428.5 secs   av.it.:  15.6
      thresh= 6.909E-06 alpha_mix =  0.700 |ddv_scf|^2 =  1.518E-10

      iter #  12 total cpu time :   430.2 secs   av.it.:  16.6
      thresh= 1.232E-06 alpha_mix =  0.700 |ddv_scf|^2 =  5.265E-11

      iter #  13 total cpu time :   431.9 secs   av.it.:  17.5
      thresh= 7.256E-07 alpha_mix =  0.700 |ddv_scf|^2 =  3.726E-11

      iter #  14 total cpu time :   433.5 secs   av.it.:  16.4
      thresh= 6.104E-07 alpha_mix =  0.700 |ddv_scf|^2 =  9.779E-12

      iter #  15 total cpu time :   435.0 secs   av.it.:  14.6
      thresh= 3.127E-07 alpha_mix =  0.700 |ddv_scf|^2 =  6.850E-13

      iter #  16 total cpu time :   436.6 secs   av.it.:  15.7
      thresh= 8.276E-08 alpha_mix =  0.700 |ddv_scf|^2 =  9.362E-14

      iter #  17 total cpu time :   438.0 secs   av.it.:  13.7
      thresh= 3.060E-08 alpha_mix =  0.700 |ddv_scf|^2 =  4.730E-14

      iter #  18 total cpu time :   439.4 secs   av.it.:  13.9
      thresh= 2.175E-08 alpha_mix =  0.700 |ddv_scf|^2 =  1.074E-14

      iter #  19 total cpu time :   440.9 secs   av.it.:  14.5
      thresh= 1.037E-08 alpha_mix =  0.700 |ddv_scf|^2 =  1.627E-15

      iter #  20 total cpu time :   442.5 secs   av.it.:  16.4
      thresh= 4.034E-09 alpha_mix =  0.700 |ddv_scf|^2 =  1.105E-15

      iter #  21 total cpu time :   444.1 secs   av.it.:  14.4
      thresh= 3.324E-09 alpha_mix =  0.700 |ddv_scf|^2 =  4.652E-17

      iter #  22 total cpu time :   445.8 secs   av.it.:  17.0
      thresh= 6.820E-10 alpha_mix =  0.700 |ddv_scf|^2 =  2.852E-17

      iter #  23 total cpu time :   447.4 secs   av.it.:  16.4
      thresh= 5.341E-10 alpha_mix =  0.700 |ddv_scf|^2 =  1.087E-17

      iter #  24 total cpu time :   448.9 secs   av.it.:  14.3
      thresh= 3.297E-10 alpha_mix =  0.700 |ddv_scf|^2 =  2.534E-18

      iter #  25 total cpu time :   450.4 secs   av.it.:  15.1
      thresh= 1.592E-10 alpha_mix =  0.700 |ddv_scf|^2 =  3.277E-20

      iter #  26 total cpu time :   452.1 secs   av.it.:  17.5
      thresh= 1.810E-11 alpha_mix =  0.700 |ddv_scf|^2 =  1.162E-19

      iter #  27 total cpu time :   453.6 secs   av.it.:  15.5
      thresh= 3.408E-11 alpha_mix =  0.700 |ddv_scf|^2 =  3.272E-21

      iter #  28 total cpu time :   455.2 secs   av.it.:  15.4
      thresh= 5.720E-12 alpha_mix =  0.700 |ddv_scf|^2 =  9.742E-23

     End of self-consistent calculation

     Convergence has been achieved 
 
     Number of q in the star =    1
     List of q in the star:
          1   0.000000000   0.020000000   0.010000000
     In addition there is the -q list: 
          1   0.000000000  -0.020000000  -0.010000000

          Effective charges (d P / du) in cartesian axis 

           atom      1   Mo 
      Px  (    -0.00000    -0.00000    -0.00026     0.00430     0.00000     0.00022 )
      Py  (     0.00000     0.00000     0.00000     0.00000     0.00000     0.00000 )
      Pz  (     0.00000     0.00000     0.00000     0.00000     0.00000     0.00000 )
           atom      2   S  
      Px  (     0.00000    -0.00000    -0.00007    -0.00227    -0.00030    -0.00015 )
      Py  (     0.00000     0.00000     0.00000     0.00000     0.00000     0.00000 )
      Pz  (     0.00000     0.00000     0.00000     0.00000     0.00000     0.00000 )
           atom      3   S  
      Px  (    -0.00000    -0.00000     0.00004    -0.00227     0.00030    -0.00015 )
      Py  (     0.00000     0.00000     0.00000     0.00000     0.00000     0.00000 )
      Pz  (     0.00000     0.00000     0.00000     0.00000     0.00000     0.00000 )

     Diagonalizing the dynamical matrix

     q = (    0.000000000   0.020000000   0.010000000 ) 

 **************************************************************************
     freq (    1) =       0.200435 [THz] =       6.685780 [cm-1]
     freq (    2) =       0.288408 [THz] =       9.620256 [cm-1]
     freq (    3) =       0.434590 [THz] =      14.496366 [cm-1]
     freq (    4) =       8.292242 [THz] =     276.599410 [cm-1]
     freq (    5) =       8.299304 [THz] =     276.834992 [cm-1]
     freq (    6) =      11.191214 [THz] =     373.298705 [cm-1]
     freq (    7) =      11.236585 [THz] =     374.812119 [cm-1]
     freq (    8) =      11.888473 [THz] =     396.556766 [cm-1]
     freq (    9) =      13.738225 [THz] =     458.257843 [cm-1]
 **************************************************************************

     Mode symmetry, C_1 (1)     point group:

     freq (   1-   1) =          6.7  [cm-1]   --> A                  
     freq (   2-   2) =          9.6  [cm-1]   --> A                  
     freq (   3-   3) =         14.5  [cm-1]   --> A                  
     freq (   4-   4) =        276.6  [cm-1]   --> A                  
     freq (   5-   5) =        276.8  [cm-1]   --> A                  
     freq (   6-   6) =        373.3  [cm-1]   --> A                  
     freq (   7-   7) =        374.8  [cm-1]   --> A                  
     freq (   8-   8) =        396.6  [cm-1]   --> A                  
     freq (   9-   9) =        458.3  [cm-1]   --> A                  
 
     init_run     :      0.05s CPU      0.06s WALL (       1 calls)
     electrons    :      4.90s CPU      5.16s WALL (       1 calls)

     Called by init_run:
     wfcinit      :      0.00s CPU      0.00s WALL (       1 calls)
     potinit      :      0.01s CPU      0.01s WALL (       1 calls)
     hinit0       :      0.02s CPU      0.02s WALL (       1 calls)

     Called by electrons:
     c_bands      :      4.90s CPU      5.15s WALL (       1 calls)
     v_of_rho     :      0.01s CPU      0.01s WALL (       2 calls)

     Called by c_bands:
     init_us_2    :      1.13s CPU      1.16s WALL (    4986 calls)
     cegterg      :      4.40s CPU      4.52s WALL (      72 calls)

     Called by *egterg:
     cdiaghg      :      0.54s CPU      0.61s WALL (    1196 calls)
     h_psi        :    296.84s CPU    306.95s WALL (  116309 calls)
     g_psi        :      0.02s CPU      0.02s WALL (    1160 calls)

     Called by h_psi:
     h_psi:calbec :     11.87s CPU     12.26s WALL (  116309 calls)
     vloc_psi     :    277.89s CPU    287.38s WALL (  116309 calls)
     add_vuspsi   :      5.59s CPU      5.79s WALL (  116309 calls)

     General routines
     calbec       :     18.59s CPU     19.22s WALL (  232178 calls)
     fft          :      0.75s CPU      0.79s WALL (    2928 calls)
     ffts         :      0.07s CPU      0.07s WALL (     243 calls)
     fftw         :    283.21s CPU    293.81s WALL ( 2242358 calls)
     davcio       :      1.89s CPU      3.58s WALL (   26995 calls)
 
     Parallel routines
     fft_scatt_xy :     35.20s CPU     36.49s WALL ( 2245529 calls)
     fft_scatt_yz :    104.13s CPU    108.05s WALL ( 2245529 calls)
 
     PHONON       :   7m 1.04s CPU   7m36.49s WALL

     INITIALIZATION: 
     phq_setup    :      0.02s CPU      0.05s WALL (       1 calls)
     phq_init     :      0.08s CPU      0.10s WALL (       1 calls)
 
     phq_init     :      0.08s CPU      0.10s WALL (       1 calls)
     init_vloc    :      0.02s CPU      0.02s WALL (       2 calls)
     init_us_1    :      0.01s CPU      0.01s WALL (       2 calls)
 
     DYNAMICAL MATRIX:
     dynmat0      :      0.04s CPU      0.05s WALL (       1 calls)
     phqscf       :    415.40s CPU    448.92s WALL (       1 calls)
     dynmatrix    :      0.12s CPU      1.14s WALL (       1 calls)
 
     phqscf       :    415.40s CPU    448.92s WALL (       1 calls)
     solve_linter :    414.96s CPU    448.09s WALL (       9 calls)
     drhodv       :      0.13s CPU      0.14s WALL (       9 calls)
     add_zstar_ue :      0.30s CPU      0.33s WALL (       9 calls)
 
     dynmat0      :      0.04s CPU      0.05s WALL (       1 calls)
     dynmat_us    :      0.03s CPU      0.04s WALL (       1 calls)
     d2ionq       :      0.00s CPU      0.00s WALL (       1 calls)
 
     dynmat_us    :      0.03s CPU      0.04s WALL (       1 calls)
 
     phqscf       :    415.40s CPU    448.92s WALL (       1 calls)
     solve_linter :    414.96s CPU    448.09s WALL (       9 calls)
 
     solve_linter :    414.96s CPU    448.09s WALL (       9 calls)
     dvqpsi_us    :      0.71s CPU      0.75s WALL (     162 calls)
     ortho        :      0.90s CPU      0.94s WALL (    4752 calls)
     cgsolve      :    328.50s CPU    339.74s WALL (    4752 calls)
     incdrhoscf   :     20.36s CPU     21.52s WALL (    4752 calls)
     vpsifft      :     17.74s CPU     19.16s WALL (    4590 calls)
     dv_of_drho   :      1.30s CPU      1.38s WALL (     264 calls)
     mix_pot      :      0.45s CPU      2.08s WALL (     264 calls)
 
     dvqpsi_us    :      0.71s CPU      0.75s WALL (     162 calls)
     dvqpsi_us_on :      0.05s CPU      0.05s WALL (     162 calls)
 
     cgsolve      :    328.50s CPU    339.74s WALL (    4752 calls)
     ch_psi       :    316.39s CPU    327.19s WALL (  115041 calls)
 
     ch_psi       :    316.39s CPU    327.19s WALL (  115041 calls)
     h_psi        :    296.84s CPU    306.95s WALL (  116309 calls)
     last         :     19.46s CPU     20.16s WALL (  115041 calls)
 
     h_psi        :    296.84s CPU    306.95s WALL (  116309 calls)
     add_vuspsi   :      5.59s CPU      5.79s WALL (  116309 calls)
 
     incdrhoscf   :     20.36s CPU     21.52s WALL (    4752 calls)
 
 
      General routines
     calbec       :     18.59s CPU     19.22s WALL (  232178 calls)
     fft          :      0.75s CPU      0.79s WALL (    2928 calls)
     ffts         :      0.07s CPU      0.07s WALL (     243 calls)
     fftw         :    283.21s CPU    293.81s WALL ( 2242358 calls)
     davcio       :      1.89s CPU      3.58s WALL (   26995 calls)
     write_rec    :      0.18s CPU     16.39s WALL (     273 calls)
 
 
     PHONON       :   7m 1.04s CPU   7m36.49s WALL

 
   This run was terminated on:   4:11: 9   3Nov2021            

=------------------------------------------------------------------------------=
   JOB DONE.
=------------------------------------------------------------------------------=
TACC:  Shutdown complete. Exiting. 
