TACC:  Starting up job 3726884 
TACC:  Starting parallel tasks... 

     Program PHONON v.6.7MaX starts on  3Nov2021 at  3:43:12 

     This program is part of the open-source Quantum ESPRESSO suite
     for quantum simulation of materials; please cite
         "P. Giannozzi et al., J. Phys.:Condens. Matter 21 395502 (2009);
         "P. Giannozzi et al., J. Phys.:Condens. Matter 29 465901 (2017);
          URL http://www.quantum-espresso.org", 
     in publications or presentations arising from this work. More details at
     http://www.quantum-espresso.org/quote

     Parallel version (MPI), running on   224 processors

     MPI processes distributed on     4 nodes
     K-points division:     npool     =       8
     R & G space division:  proc/nbgrp/npool/nimage =      28
     Waiting for input...
     Reading input from standard input
      Title line not specified: using 'default'.

     Reading xml data from directory:

     ./mos2.save/
     Message from routine read_pp_mesh:
     mesh size missing, using the one in header
     Message from routine read_pp_mesh:
     mesh size missing, using the one in header

     IMPORTANT: XC functional enforced from input :
     Exchange-correlation= PBE
                           (   1   4   3   4   0   0   0)
     Any further DFT definition will be discarded
     Please, verify this is what you really want

 
     Parallelization info
     --------------------
     sticks:   dense  smooth     PW     G-vecs:    dense   smooth      PW
     Min          32      32     10                 4880     4880     824
     Max          33      33     11                 4893     4893     854
     Sum         913     913    283               136861   136861   23317
 
     Reading collected, re-writing distributed wavefunctions

     Calculation of q =    0.0000000   0.0000000   0.0000000

     default                                                                    

     bravais-lattice index     =            4
     lattice parameter (alat)  =       6.0189  a.u.
     unit-cell volume          =    1185.7697 (a.u.)^3
     number of atoms/cell      =            3
     number of atomic types    =            2
     kinetic-energy cut-off    =      90.0000  Ry
     charge density cut-off    =     360.0000  Ry
     convergence threshold     =      1.0E-21
     beta                      =       0.7000
     number of iterations used =            4
     Exchange-correlation= PBE
                           (   1   4   3   4   0   0   0)


     celldm(1)=    6.01895  celldm(2)=    0.00000  celldm(3)=    6.27926
     celldm(4)=    0.00000  celldm(5)=    0.00000  celldm(6)=    0.00000

     crystal axes: (cart. coord. in units of alat)
               a(1) = (  1.0000  0.0000  0.0000 )  
               a(2) = ( -0.5000  0.8660  0.0000 )  
               a(3) = (  0.0000  0.0000  6.2793 )  

     reciprocal axes: (cart. coord. in units 2 pi/alat)
               b(1) = (  1.0000  0.5774  0.0000 )  
               b(2) = (  0.0000  1.1547  0.0000 )  
               b(3) = (  0.0000  0.0000  0.1593 )  


     Atoms inside the unit cell: 

     Cartesian axes

     site n.  atom      mass           positions (alat units)
        1     Mo  95.9500   tau(    1) = (    0.00000    0.00000    0.62793  )
        2     S   32.0600   tau(    2) = (   -0.00000    0.57735    0.13687  )
        3     S   32.0600   tau(    3) = (   -0.00000    0.57735    1.11898  )

     Computing dynamical matrix for 
                    q = (   0.0000000   0.0000000   0.0000000 )
 
      2 Sym.Ops. (with q -> -q+G )


     G cutoff =  330.3571  (   4884 G-vectors)     FFT grid: ( 40, 40,240)
     number of k points=    74
                       cart. coord. in units 2pi/alat
        k(    1) = (   0.0000000   0.0000000   0.0000000), wk =   0.0138889
        k(    2) = (   0.0000000   0.0962250   0.0000000), wk =   0.0277778
        k(    3) = (   0.0000000   0.1924501   0.0000000), wk =   0.0277778
        k(    4) = (   0.0000000   0.2886751   0.0000000), wk =   0.0277778
        k(    5) = (   0.0000000   0.3849002   0.0000000), wk =   0.0277778
        k(    6) = (   0.0000000   0.4811252   0.0000000), wk =   0.0277778
        k(    7) = (   0.0000000  -0.5773503   0.0000000), wk =   0.0138889
        k(    8) = (   0.0833333   0.0481125   0.0000000), wk =   0.0277778
        k(    9) = (   0.0833333   0.1443376   0.0000000), wk =   0.0277778
        k(   10) = (   0.0833333   0.2405626   0.0000000), wk =   0.0277778
        k(   11) = (   0.0833333   0.3367877   0.0000000), wk =   0.0277778
        k(   12) = (   0.0833333   0.4330127   0.0000000), wk =   0.0277778
        k(   13) = (   0.0833333   0.5292377   0.0000000), wk =   0.0277778
        k(   14) = (   0.0833333  -0.5292377   0.0000000), wk =   0.0277778
        k(   15) = (   0.0833333  -0.4330127   0.0000000), wk =   0.0277778
        k(   16) = (   0.0833333  -0.3367877   0.0000000), wk =   0.0277778
        k(   17) = (   0.0833333  -0.2405626   0.0000000), wk =   0.0277778
        k(   18) = (   0.0833333  -0.1443376   0.0000000), wk =   0.0277778
        k(   19) = (   0.0833333  -0.0481125   0.0000000), wk =   0.0277778
        k(   20) = (   0.1666667   0.0962250   0.0000000), wk =   0.0277778
        k(   21) = (   0.1666667   0.1924501   0.0000000), wk =   0.0277778
        k(   22) = (   0.1666667   0.2886751   0.0000000), wk =   0.0277778
        k(   23) = (   0.1666667   0.3849002   0.0000000), wk =   0.0277778
        k(   24) = (   0.1666667   0.4811252   0.0000000), wk =   0.0277778
        k(   25) = (   0.1666667   0.5773503   0.0000000), wk =   0.0277778
        k(   26) = (   0.1666667  -0.4811252   0.0000000), wk =   0.0277778
        k(   27) = (   0.1666667  -0.3849002   0.0000000), wk =   0.0277778
        k(   28) = (   0.1666667  -0.2886751   0.0000000), wk =   0.0277778
        k(   29) = (   0.1666667  -0.1924501   0.0000000), wk =   0.0277778
        k(   30) = (   0.1666667  -0.0962250   0.0000000), wk =   0.0277778
        k(   31) = (   0.1666667  -0.0000000   0.0000000), wk =   0.0277778
        k(   32) = (   0.2500000   0.1443376   0.0000000), wk =   0.0277778
        k(   33) = (   0.2500000   0.2405626   0.0000000), wk =   0.0277778
        k(   34) = (   0.2500000   0.3367877   0.0000000), wk =   0.0277778
        k(   35) = (   0.2500000   0.4330127   0.0000000), wk =   0.0277778
        k(   36) = (   0.2500000   0.5292377   0.0000000), wk =   0.0277778
        k(   37) = (   0.2500000   0.6254628   0.0000000), wk =   0.0277778
        k(   38) = (   0.2500000  -0.4330127   0.0000000), wk =   0.0277778
        k(   39) = (   0.2500000  -0.3367877   0.0000000), wk =   0.0277778
        k(   40) = (   0.2500000  -0.2405626   0.0000000), wk =   0.0277778
        k(   41) = (   0.2500000  -0.1443376   0.0000000), wk =   0.0277778
        k(   42) = (   0.2500000  -0.0481125   0.0000000), wk =   0.0277778
        k(   43) = (   0.2500000   0.0481125   0.0000000), wk =   0.0277778
        k(   44) = (   0.3333333   0.1924501   0.0000000), wk =   0.0277778
        k(   45) = (   0.3333333   0.2886751   0.0000000), wk =   0.0277778
        k(   46) = (   0.3333333   0.3849002   0.0000000), wk =   0.0277778
        k(   47) = (   0.3333333   0.4811252   0.0000000), wk =   0.0277778
        k(   48) = (   0.3333333   0.5773503   0.0000000), wk =   0.0277778
        k(   49) = (   0.3333333   0.6735753   0.0000000), wk =   0.0277778
        k(   50) = (   0.3333333  -0.3849002   0.0000000), wk =   0.0277778
        k(   51) = (   0.3333333  -0.2886751   0.0000000), wk =   0.0277778
        k(   52) = (   0.3333333  -0.1924501   0.0000000), wk =   0.0277778
        k(   53) = (   0.3333333  -0.0962250   0.0000000), wk =   0.0277778
        k(   54) = (   0.3333333   0.0000000   0.0000000), wk =   0.0277778
        k(   55) = (   0.3333333   0.0962250   0.0000000), wk =   0.0277778
        k(   56) = (   0.4166667   0.2405626   0.0000000), wk =   0.0277778
        k(   57) = (   0.4166667   0.3367877   0.0000000), wk =   0.0277778
        k(   58) = (   0.4166667   0.4330127   0.0000000), wk =   0.0277778
        k(   59) = (   0.4166667   0.5292377   0.0000000), wk =   0.0277778
        k(   60) = (   0.4166667   0.6254628   0.0000000), wk =   0.0277778
        k(   61) = (   0.4166667   0.7216878   0.0000000), wk =   0.0277778
        k(   62) = (   0.4166667  -0.3367877   0.0000000), wk =   0.0277778
        k(   63) = (   0.4166667  -0.2405626   0.0000000), wk =   0.0277778
        k(   64) = (   0.4166667  -0.1443376   0.0000000), wk =   0.0277778
        k(   65) = (   0.4166667  -0.0481125   0.0000000), wk =   0.0277778
        k(   66) = (   0.4166667   0.0481125   0.0000000), wk =   0.0277778
        k(   67) = (   0.4166667   0.1443376   0.0000000), wk =   0.0277778
        k(   68) = (  -0.5000000  -0.2886751   0.0000000), wk =   0.0138889
        k(   69) = (  -0.5000000  -0.1924501   0.0000000), wk =   0.0277778
        k(   70) = (  -0.5000000  -0.0962250   0.0000000), wk =   0.0277778
        k(   71) = (  -0.5000000   0.0000000   0.0000000), wk =   0.0277778
        k(   72) = (  -0.5000000   0.0962250   0.0000000), wk =   0.0277778
        k(   73) = (  -0.5000000   0.1924501   0.0000000), wk =   0.0277778
        k(   74) = (  -0.5000000  -0.8660254   0.0000000), wk =   0.0138889

     PseudoPot. # 1 for Mo read from file:
     ./Mo_ONCV_PBE-1.2.upf
     MD5 check sum: 2665c9f4159700498d9a5f7573bd8e9f
     Pseudo is Norm-conserving, Zval = 14.0
     Generated using ONCVPSP code by D. R. Hamann
     Using radial grid of  602 points,  6 beta functions with: 
                l(1) =   0
                l(2) =   0
                l(3) =   1
                l(4) =   1
                l(5) =   2
                l(6) =   2

     PseudoPot. # 2 for S  read from file:
     ./S_ONCV_PBE-1.2.upf
     MD5 check sum: f9d020296ee6110346977bfd66d424f6
     Pseudo is Norm-conserving, Zval =  6.0
     Generated using ONCVPSP code by D. R. Hamann
     Using radial grid of  602 points,  4 beta functions with: 
                l(1) =   0
                l(2) =   0
                l(3) =   1
                l(4) =   1

     Mode symmetry, C_1 (1)     point group:


     Electric field:
     Dielectric constant
     Born effective charges as d Force / d E


     Atomic displacements:
     There are    9 irreducible representations

     Representation     1      1 modes -  To be done

     Representation     2      1 modes -  To be done

     Representation     3      1 modes -  To be done

     Representation     4      1 modes -  To be done

     Representation     5      1 modes -  To be done

     Representation     6      1 modes -  To be done

     Representation     7      1 modes -  To be done

     Representation     8      1 modes -  To be done

     Representation     9      1 modes -  To be done



     Alpha used in Ewald sum =   2.8000
     PHONON       :      0.37s CPU      0.76s WALL


     Electric Fields Calculation

      iter #   1 total cpu time :     7.6 secs   av.it.:   9.9
      thresh= 1.000E-02 alpha_mix =  0.700 |ddv_scf|^2 =  3.175E-04

      iter #   2 total cpu time :    10.2 secs   av.it.:  12.8
      thresh= 1.782E-03 alpha_mix =  0.700 |ddv_scf|^2 =  7.812E-03

      iter #   3 total cpu time :    11.5 secs   av.it.:   5.7
      thresh= 8.838E-03 alpha_mix =  0.700 |ddv_scf|^2 =  1.006E-05

      iter #   4 total cpu time :    14.1 secs   av.it.:  13.0
      thresh= 3.172E-04 alpha_mix =  0.700 |ddv_scf|^2 =  3.962E-06

      iter #   5 total cpu time :    16.3 secs   av.it.:  12.1
      thresh= 1.990E-04 alpha_mix =  0.700 |ddv_scf|^2 =  8.935E-08

      iter #   6 total cpu time :    18.7 secs   av.it.:  13.1
      thresh= 2.989E-05 alpha_mix =  0.700 |ddv_scf|^2 =  3.537E-11

      iter #   7 total cpu time :    21.9 secs   av.it.:  18.7
      thresh= 5.947E-07 alpha_mix =  0.700 |ddv_scf|^2 =  1.062E-11

      iter #   8 total cpu time :    25.1 secs   av.it.:  16.9
      thresh= 3.260E-07 alpha_mix =  0.700 |ddv_scf|^2 =  6.356E-12

      iter #   9 total cpu time :    28.3 secs   av.it.:  16.9
      thresh= 2.521E-07 alpha_mix =  0.700 |ddv_scf|^2 =  1.374E-12

      iter #  10 total cpu time :    31.5 secs   av.it.:  16.5
      thresh= 1.172E-07 alpha_mix =  0.700 |ddv_scf|^2 =  6.069E-13

      iter #  11 total cpu time :    34.7 secs   av.it.:  16.2
      thresh= 7.790E-08 alpha_mix =  0.700 |ddv_scf|^2 =  2.964E-14

      iter #  12 total cpu time :    37.8 secs   av.it.:  16.6
      thresh= 1.722E-08 alpha_mix =  0.700 |ddv_scf|^2 =  9.122E-17

      iter #  13 total cpu time :    41.5 secs   av.it.:  18.2
      thresh= 9.551E-10 alpha_mix =  0.700 |ddv_scf|^2 =  2.255E-17

      iter #  14 total cpu time :    46.6 secs   av.it.:  19.6
      thresh= 4.748E-10 alpha_mix =  0.700 |ddv_scf|^2 =  2.396E-16

      iter #  15 total cpu time :    57.0 secs   av.it.:  16.8
      thresh= 1.548E-09 alpha_mix =  0.700 |ddv_scf|^2 =  6.084E-18

      iter #  16 total cpu time :    61.1 secs   av.it.:  18.7
      thresh= 2.467E-10 alpha_mix =  0.700 |ddv_scf|^2 =  1.914E-17

      iter #  17 total cpu time :    64.6 secs   av.it.:  17.3
      thresh= 4.375E-10 alpha_mix =  0.700 |ddv_scf|^2 =  8.746E-18

      iter #  18 total cpu time :    68.2 secs   av.it.:  16.2
      thresh= 2.957E-10 alpha_mix =  0.700 |ddv_scf|^2 =  3.277E-19

      iter #  19 total cpu time :    71.6 secs   av.it.:  17.7
      thresh= 5.724E-11 alpha_mix =  0.700 |ddv_scf|^2 =  7.350E-19

      iter #  20 total cpu time :    74.9 secs   av.it.:  16.7
      thresh= 8.573E-11 alpha_mix =  0.700 |ddv_scf|^2 =  7.264E-20

      iter #  21 total cpu time :    78.3 secs   av.it.:  17.5
      thresh= 2.695E-11 alpha_mix =  0.700 |ddv_scf|^2 =  1.022E-19

      iter #  22 total cpu time :    82.0 secs   av.it.:  17.3
      thresh= 3.198E-11 alpha_mix =  0.700 |ddv_scf|^2 =  1.656E-20

      iter #  23 total cpu time :    85.4 secs   av.it.:  17.1
      thresh= 1.287E-11 alpha_mix =  0.700 |ddv_scf|^2 =  4.170E-22

     End of electric fields calculation

          Dielectric constant in cartesian axis 

          (       5.345324281      -0.000000047      -0.000000013 )
          (      -0.000000047       5.345323948      -0.000000005 )
          (      -0.000000002      -0.000000001       1.341616169 )

          Effective charges (d Force / dE) in cartesian axis

           atom      1   Mo 
      Ex  (       -0.98729        0.00000        0.00000 )
      Ey  (        0.00000       -0.98729        0.00000 )
      Ez  (        0.00000       -0.00000       -0.09272 )
           atom      2   S  
      Ex  (        0.49356        0.00000        0.00000 )
      Ey  (       -0.00000        0.49356        0.00000 )
      Ez  (       -0.00000       -0.00000        0.04589 )
           atom      3   S  
      Ex  (        0.49357       -0.00000        0.00000 )
      Ey  (       -0.00000        0.49357        0.00000 )
      Ez  (        0.00000       -0.00000        0.04589 )

     Calling punch_plot_e
     Writing on file  drho                                                                                                                                                                                                                                                            


     Representation #   1 mode #   1

     Self-consistent Calculation

      iter #   1 total cpu time :    88.1 secs   av.it.:  10.3
      thresh= 1.000E-02 alpha_mix =  0.700 |ddv_scf|^2 =  5.429E-07

      iter #   2 total cpu time :    89.4 secs   av.it.:  17.7
      thresh= 7.368E-05 alpha_mix =  0.700 |ddv_scf|^2 =  5.289E-08

      iter #   3 total cpu time :    90.8 secs   av.it.:  18.0
      thresh= 2.300E-05 alpha_mix =  0.700 |ddv_scf|^2 =  1.255E-10

      iter #   4 total cpu time :    92.2 secs   av.it.:  18.5
      thresh= 1.120E-06 alpha_mix =  0.700 |ddv_scf|^2 =  9.768E-12

      iter #   5 total cpu time :    93.6 secs   av.it.:  17.9
      thresh= 3.125E-07 alpha_mix =  0.700 |ddv_scf|^2 =  1.976E-13

      iter #   6 total cpu time :    94.8 secs   av.it.:  19.6
      thresh= 4.445E-08 alpha_mix =  0.700 |ddv_scf|^2 =  1.906E-12

      iter #   7 total cpu time :    96.1 secs   av.it.:  16.1
      thresh= 1.381E-07 alpha_mix =  0.700 |ddv_scf|^2 =  4.959E-15

      iter #   8 total cpu time :    97.5 secs   av.it.:  20.0
      thresh= 7.042E-09 alpha_mix =  0.700 |ddv_scf|^2 =  5.557E-14

      iter #   9 total cpu time :    98.8 secs   av.it.:  15.5
      thresh= 2.357E-08 alpha_mix =  0.700 |ddv_scf|^2 =  9.216E-17

      iter #  10 total cpu time :   100.2 secs   av.it.:  19.6
      thresh= 9.600E-10 alpha_mix =  0.700 |ddv_scf|^2 =  2.860E-18

      iter #  11 total cpu time :   101.9 secs   av.it.:  18.4
      thresh= 1.691E-10 alpha_mix =  0.700 |ddv_scf|^2 =  2.025E-19

      iter #  12 total cpu time :   103.4 secs   av.it.:  17.9
      thresh= 4.500E-11 alpha_mix =  0.700 |ddv_scf|^2 =  4.264E-20

      iter #  13 total cpu time :   105.0 secs   av.it.:  19.4
      thresh= 2.065E-11 alpha_mix =  0.700 |ddv_scf|^2 =  4.074E-19

      iter #  14 total cpu time :   106.4 secs   av.it.:  16.2
      thresh= 6.383E-11 alpha_mix =  0.700 |ddv_scf|^2 =  1.757E-22

     End of self-consistent calculation

     Convergence has been achieved 


     Representation #   2 mode #   2

     Self-consistent Calculation

      iter #   1 total cpu time :   108.0 secs   av.it.:  10.6
      thresh= 1.000E-02 alpha_mix =  0.700 |ddv_scf|^2 =  5.428E-07

      iter #   2 total cpu time :   109.4 secs   av.it.:  17.8
      thresh= 7.368E-05 alpha_mix =  0.700 |ddv_scf|^2 =  5.283E-08

      iter #   3 total cpu time :   110.8 secs   av.it.:  18.2
      thresh= 2.299E-05 alpha_mix =  0.700 |ddv_scf|^2 =  1.188E-10

      iter #   4 total cpu time :   112.1 secs   av.it.:  18.7
      thresh= 1.090E-06 alpha_mix =  0.700 |ddv_scf|^2 =  3.290E-11

      iter #   5 total cpu time :   116.2 secs   av.it.:  17.9
      thresh= 5.736E-07 alpha_mix =  0.700 |ddv_scf|^2 =  1.601E-10

      iter #   6 total cpu time :   119.2 secs   av.it.:  16.0
      thresh= 1.265E-06 alpha_mix =  0.700 |ddv_scf|^2 =  9.840E-14

      iter #   7 total cpu time :   123.5 secs   av.it.:  20.4
      thresh= 3.137E-08 alpha_mix =  0.700 |ddv_scf|^2 =  1.467E-12

      iter #   8 total cpu time :   132.7 secs   av.it.:  14.7
      thresh= 1.211E-07 alpha_mix =  0.700 |ddv_scf|^2 =  5.968E-15

      iter #   9 total cpu time :   134.0 secs   av.it.:  19.0
      thresh= 7.726E-09 alpha_mix =  0.700 |ddv_scf|^2 =  3.743E-16

      iter #  10 total cpu time :   135.4 secs   av.it.:  17.7
      thresh= 1.935E-09 alpha_mix =  0.700 |ddv_scf|^2 =  9.499E-17

      iter #  11 total cpu time :   136.6 secs   av.it.:  16.6
      thresh= 9.746E-10 alpha_mix =  0.700 |ddv_scf|^2 =  3.388E-18

      iter #  12 total cpu time :   137.7 secs   av.it.:  17.0
      thresh= 1.841E-10 alpha_mix =  0.700 |ddv_scf|^2 =  5.125E-19

      iter #  13 total cpu time :   138.9 secs   av.it.:  18.5
      thresh= 7.159E-11 alpha_mix =  0.700 |ddv_scf|^2 =  9.457E-20

      iter #  14 total cpu time :   140.0 secs   av.it.:  17.2
      thresh= 3.075E-11 alpha_mix =  0.700 |ddv_scf|^2 =  1.186E-19

      iter #  15 total cpu time :   141.4 secs   av.it.:  17.5
      thresh= 3.444E-11 alpha_mix =  0.700 |ddv_scf|^2 =  5.044E-22

     End of self-consistent calculation

     Convergence has been achieved 


     Representation #   3 mode #   3

     Self-consistent Calculation

      iter #   1 total cpu time :   143.4 secs   av.it.:  11.5
      thresh= 1.000E-02 alpha_mix =  0.700 |ddv_scf|^2 =  4.590E-04

      iter #   2 total cpu time :   144.6 secs   av.it.:  15.3
      thresh= 2.142E-03 alpha_mix =  0.700 |ddv_scf|^2 =  1.340E-02

      iter #   3 total cpu time :   146.2 secs   av.it.:  13.4
      thresh= 1.000E-02 alpha_mix =  0.700 |ddv_scf|^2 =  5.741E-06

      iter #   4 total cpu time :   147.5 secs   av.it.:  15.4
      thresh= 2.396E-04 alpha_mix =  0.700 |ddv_scf|^2 =  1.772E-06

      iter #   5 total cpu time :   148.8 secs   av.it.:  14.3
      thresh= 1.331E-04 alpha_mix =  0.700 |ddv_scf|^2 =  4.790E-09

      iter #   6 total cpu time :   150.1 secs   av.it.:  17.2
      thresh= 6.921E-06 alpha_mix =  0.700 |ddv_scf|^2 =  2.331E-08

      iter #   7 total cpu time :   151.6 secs   av.it.:  15.8
      thresh= 1.527E-05 alpha_mix =  0.700 |ddv_scf|^2 =  4.211E-10

      iter #   8 total cpu time :   153.0 secs   av.it.:  16.9
      thresh= 2.052E-06 alpha_mix =  0.700 |ddv_scf|^2 =  9.018E-11

      iter #   9 total cpu time :   154.8 secs   av.it.:  16.1
      thresh= 9.497E-07 alpha_mix =  0.700 |ddv_scf|^2 =  9.541E-14

      iter #  10 total cpu time :   156.5 secs   av.it.:  15.6
      thresh= 3.089E-08 alpha_mix =  0.700 |ddv_scf|^2 =  3.034E-15

      iter #  11 total cpu time :   158.4 secs   av.it.:  16.9
      thresh= 5.508E-09 alpha_mix =  0.700 |ddv_scf|^2 =  6.216E-16

      iter #  12 total cpu time :   160.0 secs   av.it.:  18.4
      thresh= 2.493E-09 alpha_mix =  0.700 |ddv_scf|^2 =  8.535E-16

      iter #  13 total cpu time :   161.5 secs   av.it.:  17.0
      thresh= 2.922E-09 alpha_mix =  0.700 |ddv_scf|^2 =  3.553E-18

      iter #  14 total cpu time :   162.9 secs   av.it.:  16.6
      thresh= 1.885E-10 alpha_mix =  0.700 |ddv_scf|^2 =  1.898E-19

      iter #  15 total cpu time :   164.2 secs   av.it.:  17.0
      thresh= 4.356E-11 alpha_mix =  0.700 |ddv_scf|^2 =  1.710E-20

      iter #  16 total cpu time :   165.7 secs   av.it.:  18.4
      thresh= 1.308E-11 alpha_mix =  0.700 |ddv_scf|^2 =  5.071E-21

      iter #  17 total cpu time :   167.3 secs   av.it.:  17.9
      thresh= 7.121E-12 alpha_mix =  0.700 |ddv_scf|^2 =  5.316E-22

     End of self-consistent calculation

     Convergence has been achieved 


     Representation #   4 mode #   4

     Self-consistent Calculation

      iter #   1 total cpu time :   169.0 secs   av.it.:   9.2
      thresh= 1.000E-02 alpha_mix =  0.700 |ddv_scf|^2 =  2.899E-08

      iter #   2 total cpu time :   171.0 secs   av.it.:  21.2
      thresh= 1.703E-05 alpha_mix =  0.700 |ddv_scf|^2 =  2.500E-09

      iter #   3 total cpu time :   172.8 secs   av.it.:  21.0
      thresh= 5.000E-06 alpha_mix =  0.700 |ddv_scf|^2 =  3.170E-11

      iter #   4 total cpu time :   174.4 secs   av.it.:  20.0
      thresh= 5.630E-07 alpha_mix =  0.700 |ddv_scf|^2 =  2.082E-12

      iter #   5 total cpu time :   176.3 secs   av.it.:  20.8
      thresh= 1.443E-07 alpha_mix =  0.700 |ddv_scf|^2 =  1.023E-12

      iter #   6 total cpu time :   177.8 secs   av.it.:  15.8
      thresh= 1.011E-07 alpha_mix =  0.700 |ddv_scf|^2 =  2.425E-13

      iter #   7 total cpu time :   179.4 secs   av.it.:  17.0
      thresh= 4.924E-08 alpha_mix =  0.700 |ddv_scf|^2 =  6.029E-15

      iter #   8 total cpu time :   180.9 secs   av.it.:  17.9
      thresh= 7.765E-09 alpha_mix =  0.700 |ddv_scf|^2 =  6.777E-15

      iter #   9 total cpu time :   182.4 secs   av.it.:  17.6
      thresh= 8.232E-09 alpha_mix =  0.700 |ddv_scf|^2 =  9.267E-18

      iter #  10 total cpu time :   183.8 secs   av.it.:  20.5
      thresh= 3.044E-10 alpha_mix =  0.700 |ddv_scf|^2 =  1.787E-19

      iter #  11 total cpu time :   185.3 secs   av.it.:  20.6
      thresh= 4.227E-11 alpha_mix =  0.700 |ddv_scf|^2 =  1.981E-20

      iter #  12 total cpu time :   186.5 secs   av.it.:  20.4
      thresh= 1.408E-11 alpha_mix =  0.700 |ddv_scf|^2 =  6.361E-20

      iter #  13 total cpu time :   188.3 secs   av.it.:  16.2
      thresh= 2.522E-11 alpha_mix =  0.700 |ddv_scf|^2 =  1.962E-20

      iter #  14 total cpu time :   189.8 secs   av.it.:  17.6
      thresh= 1.401E-11 alpha_mix =  0.700 |ddv_scf|^2 =  1.617E-22

     End of self-consistent calculation

     Convergence has been achieved 


     Representation #   5 mode #   5

     Self-consistent Calculation

      iter #   1 total cpu time :   191.2 secs   av.it.:   9.3
      thresh= 1.000E-02 alpha_mix =  0.700 |ddv_scf|^2 =  2.898E-08

      iter #   2 total cpu time :   192.7 secs   av.it.:  21.3
      thresh= 1.702E-05 alpha_mix =  0.700 |ddv_scf|^2 =  2.505E-09

      iter #   3 total cpu time :   194.0 secs   av.it.:  21.1
      thresh= 5.005E-06 alpha_mix =  0.700 |ddv_scf|^2 =  6.292E-11

      iter #   4 total cpu time :   195.4 secs   av.it.:  20.4
      thresh= 7.932E-07 alpha_mix =  0.700 |ddv_scf|^2 =  5.450E-10

      iter #   5 total cpu time :   196.7 secs   av.it.:  17.3
      thresh= 2.335E-06 alpha_mix =  0.700 |ddv_scf|^2 =  3.400E-11

      iter #   6 total cpu time :   198.1 secs   av.it.:  18.3
      thresh= 5.831E-07 alpha_mix =  0.700 |ddv_scf|^2 =  3.420E-11

      iter #   7 total cpu time :   199.4 secs   av.it.:  18.0
      thresh= 5.848E-07 alpha_mix =  0.700 |ddv_scf|^2 =  9.580E-14

      iter #   8 total cpu time :   201.0 secs   av.it.:  20.7
      thresh= 3.095E-08 alpha_mix =  0.700 |ddv_scf|^2 =  1.141E-15

      iter #   9 total cpu time :   202.3 secs   av.it.:  20.3
      thresh= 3.377E-09 alpha_mix =  0.700 |ddv_scf|^2 =  3.949E-17

      iter #  10 total cpu time :   204.0 secs   av.it.:  20.7
      thresh= 6.284E-10 alpha_mix =  0.700 |ddv_scf|^2 =  4.154E-18

      iter #  11 total cpu time :   205.8 secs   av.it.:  19.7
      thresh= 2.038E-10 alpha_mix =  0.700 |ddv_scf|^2 =  3.111E-19

      iter #  12 total cpu time :   208.1 secs   av.it.:  19.9
      thresh= 5.578E-11 alpha_mix =  0.700 |ddv_scf|^2 =  3.868E-18

      iter #  13 total cpu time :   209.9 secs   av.it.:  16.0
      thresh= 1.967E-10 alpha_mix =  0.700 |ddv_scf|^2 =  8.302E-21

      iter #  14 total cpu time :   213.7 secs   av.it.:  20.2
      thresh= 9.112E-12 alpha_mix =  0.700 |ddv_scf|^2 =  9.325E-21

      iter #  15 total cpu time :   235.8 secs   av.it.:  18.2
      thresh= 9.657E-12 alpha_mix =  0.700 |ddv_scf|^2 =  4.420E-22

     End of self-consistent calculation

     Convergence has been achieved 


     Representation #   6 mode #   6

     Self-consistent Calculation

      iter #   1 total cpu time :   237.2 secs   av.it.:  10.6
      thresh= 1.000E-02 alpha_mix =  0.700 |ddv_scf|^2 =  3.215E-05

      iter #   2 total cpu time :   238.4 secs   av.it.:  19.1
      thresh= 5.670E-04 alpha_mix =  0.700 |ddv_scf|^2 =  6.308E-04

      iter #   3 total cpu time :   239.3 secs   av.it.:  15.5
      thresh= 2.512E-03 alpha_mix =  0.700 |ddv_scf|^2 =  1.187E-05

      iter #   4 total cpu time :   240.9 secs   av.it.:  16.5
      thresh= 3.445E-04 alpha_mix =  0.700 |ddv_scf|^2 =  1.276E-06

      iter #   5 total cpu time :   241.9 secs   av.it.:  17.6
      thresh= 1.129E-04 alpha_mix =  0.700 |ddv_scf|^2 =  4.111E-08

      iter #   6 total cpu time :   243.2 secs   av.it.:  18.0
      thresh= 2.028E-05 alpha_mix =  0.700 |ddv_scf|^2 =  6.329E-09

      iter #   7 total cpu time :   244.2 secs   av.it.:  17.6
      thresh= 7.956E-06 alpha_mix =  0.700 |ddv_scf|^2 =  6.419E-10

      iter #   8 total cpu time :   245.4 secs   av.it.:  17.3
      thresh= 2.534E-06 alpha_mix =  0.700 |ddv_scf|^2 =  1.555E-11

      iter #   9 total cpu time :   246.5 secs   av.it.:  16.4
      thresh= 3.944E-07 alpha_mix =  0.700 |ddv_scf|^2 =  1.240E-13

      iter #  10 total cpu time :   247.5 secs   av.it.:  17.7
      thresh= 3.522E-08 alpha_mix =  0.700 |ddv_scf|^2 =  5.696E-14

      iter #  11 total cpu time :   248.5 secs   av.it.:  17.9
      thresh= 2.387E-08 alpha_mix =  0.700 |ddv_scf|^2 =  4.057E-16

      iter #  12 total cpu time :   249.5 secs   av.it.:  16.6
      thresh= 2.014E-09 alpha_mix =  0.700 |ddv_scf|^2 =  1.049E-17

      iter #  13 total cpu time :   250.5 secs   av.it.:  18.0
      thresh= 3.239E-10 alpha_mix =  0.700 |ddv_scf|^2 =  2.246E-18

      iter #  14 total cpu time :   251.7 secs   av.it.:  17.9
      thresh= 1.499E-10 alpha_mix =  0.700 |ddv_scf|^2 =  1.394E-19

      iter #  15 total cpu time :   252.9 secs   av.it.:  18.2
      thresh= 3.733E-11 alpha_mix =  0.700 |ddv_scf|^2 =  5.109E-21

      iter #  16 total cpu time :   253.9 secs   av.it.:  17.3
      thresh= 7.148E-12 alpha_mix =  0.700 |ddv_scf|^2 =  4.800E-22

     End of self-consistent calculation

     Convergence has been achieved 


     Representation #   7 mode #   7

     Self-consistent Calculation

      iter #   1 total cpu time :   254.6 secs   av.it.:   9.2
      thresh= 1.000E-02 alpha_mix =  0.700 |ddv_scf|^2 =  2.899E-08

      iter #   2 total cpu time :   255.8 secs   av.it.:  21.2
      thresh= 1.703E-05 alpha_mix =  0.700 |ddv_scf|^2 =  2.500E-09

      iter #   3 total cpu time :   257.0 secs   av.it.:  21.0
      thresh= 5.000E-06 alpha_mix =  0.700 |ddv_scf|^2 =  3.170E-11

      iter #   4 total cpu time :   258.1 secs   av.it.:  20.0
      thresh= 5.630E-07 alpha_mix =  0.700 |ddv_scf|^2 =  2.096E-12

      iter #   5 total cpu time :   259.3 secs   av.it.:  20.9
      thresh= 1.448E-07 alpha_mix =  0.700 |ddv_scf|^2 =  1.321E-12

      iter #   6 total cpu time :   260.3 secs   av.it.:  15.6
      thresh= 1.149E-07 alpha_mix =  0.700 |ddv_scf|^2 =  1.963E-13

      iter #   7 total cpu time :   261.3 secs   av.it.:  17.2
      thresh= 4.431E-08 alpha_mix =  0.700 |ddv_scf|^2 =  4.564E-15

      iter #   8 total cpu time :   262.5 secs   av.it.:  18.1
      thresh= 6.755E-09 alpha_mix =  0.700 |ddv_scf|^2 =  7.680E-15

      iter #   9 total cpu time :   263.5 secs   av.it.:  17.5
      thresh= 8.763E-09 alpha_mix =  0.700 |ddv_scf|^2 =  9.359E-18

      iter #  10 total cpu time :   264.6 secs   av.it.:  20.6
      thresh= 3.059E-10 alpha_mix =  0.700 |ddv_scf|^2 =  1.739E-19

      iter #  11 total cpu time :   265.8 secs   av.it.:  20.6
      thresh= 4.170E-11 alpha_mix =  0.700 |ddv_scf|^2 =  2.184E-20

      iter #  12 total cpu time :   267.0 secs   av.it.:  20.4
      thresh= 1.478E-11 alpha_mix =  0.700 |ddv_scf|^2 =  7.161E-20

      iter #  13 total cpu time :   268.0 secs   av.it.:  16.3
      thresh= 2.676E-11 alpha_mix =  0.700 |ddv_scf|^2 =  1.678E-20

      iter #  14 total cpu time :   269.0 secs   av.it.:  17.6
      thresh= 1.295E-11 alpha_mix =  0.700 |ddv_scf|^2 =  6.916E-23

     End of self-consistent calculation

     Convergence has been achieved 


     Representation #   8 mode #   8

     Self-consistent Calculation

      iter #   1 total cpu time :   269.8 secs   av.it.:   9.3
      thresh= 1.000E-02 alpha_mix =  0.700 |ddv_scf|^2 =  2.898E-08

      iter #   2 total cpu time :   270.9 secs   av.it.:  21.3
      thresh= 1.702E-05 alpha_mix =  0.700 |ddv_scf|^2 =  2.505E-09

      iter #   3 total cpu time :   272.5 secs   av.it.:  21.1
      thresh= 5.005E-06 alpha_mix =  0.700 |ddv_scf|^2 =  6.292E-11

      iter #   4 total cpu time :   277.1 secs   av.it.:  20.4
      thresh= 7.932E-07 alpha_mix =  0.700 |ddv_scf|^2 =  5.450E-10

      iter #   5 total cpu time :   278.3 secs   av.it.:  17.3
      thresh= 2.335E-06 alpha_mix =  0.700 |ddv_scf|^2 =  3.400E-11

      iter #   6 total cpu time :   279.3 secs   av.it.:  18.3
      thresh= 5.831E-07 alpha_mix =  0.700 |ddv_scf|^2 =  3.420E-11

      iter #   7 total cpu time :   280.4 secs   av.it.:  18.0
      thresh= 5.848E-07 alpha_mix =  0.700 |ddv_scf|^2 =  9.581E-14

      iter #   8 total cpu time :   281.6 secs   av.it.:  20.7
      thresh= 3.095E-08 alpha_mix =  0.700 |ddv_scf|^2 =  1.141E-15

      iter #   9 total cpu time :   282.7 secs   av.it.:  20.3
      thresh= 3.378E-09 alpha_mix =  0.700 |ddv_scf|^2 =  3.950E-17

      iter #  10 total cpu time :   284.2 secs   av.it.:  20.7
      thresh= 6.285E-10 alpha_mix =  0.700 |ddv_scf|^2 =  4.162E-18

      iter #  11 total cpu time :   285.5 secs   av.it.:  19.7
      thresh= 2.040E-10 alpha_mix =  0.700 |ddv_scf|^2 =  3.053E-19

      iter #  12 total cpu time :   286.7 secs   av.it.:  19.9
      thresh= 5.526E-11 alpha_mix =  0.700 |ddv_scf|^2 =  3.604E-18

      iter #  13 total cpu time :   288.3 secs   av.it.:  16.1
      thresh= 1.898E-10 alpha_mix =  0.700 |ddv_scf|^2 =  9.507E-21

      iter #  14 total cpu time :   289.6 secs   av.it.:  20.1
      thresh= 9.751E-12 alpha_mix =  0.700 |ddv_scf|^2 =  9.668E-21

      iter #  15 total cpu time :   291.1 secs   av.it.:  18.1
      thresh= 9.833E-12 alpha_mix =  0.700 |ddv_scf|^2 =  3.856E-22

     End of self-consistent calculation

     Convergence has been achieved 


     Representation #   9 mode #   9

     Self-consistent Calculation

      iter #   1 total cpu time :   292.6 secs   av.it.:  10.6
      thresh= 1.000E-02 alpha_mix =  0.700 |ddv_scf|^2 =  3.215E-05

      iter #   2 total cpu time :   293.9 secs   av.it.:  19.1
      thresh= 5.670E-04 alpha_mix =  0.700 |ddv_scf|^2 =  6.308E-04

      iter #   3 total cpu time :   294.9 secs   av.it.:  15.5
      thresh= 2.512E-03 alpha_mix =  0.700 |ddv_scf|^2 =  1.187E-05

      iter #   4 total cpu time :   296.0 secs   av.it.:  16.5
      thresh= 3.445E-04 alpha_mix =  0.700 |ddv_scf|^2 =  1.276E-06

      iter #   5 total cpu time :   297.4 secs   av.it.:  17.5
      thresh= 1.129E-04 alpha_mix =  0.700 |ddv_scf|^2 =  4.110E-08

      iter #   6 total cpu time :   298.6 secs   av.it.:  18.0
      thresh= 2.027E-05 alpha_mix =  0.700 |ddv_scf|^2 =  6.330E-09

      iter #   7 total cpu time :   299.8 secs   av.it.:  17.6
      thresh= 7.956E-06 alpha_mix =  0.700 |ddv_scf|^2 =  6.416E-10

      iter #   8 total cpu time :   300.9 secs   av.it.:  17.3
      thresh= 2.533E-06 alpha_mix =  0.700 |ddv_scf|^2 =  1.555E-11

      iter #   9 total cpu time :   302.3 secs   av.it.:  16.4
      thresh= 3.943E-07 alpha_mix =  0.700 |ddv_scf|^2 =  1.239E-13

      iter #  10 total cpu time :   303.6 secs   av.it.:  17.7
      thresh= 3.520E-08 alpha_mix =  0.700 |ddv_scf|^2 =  5.678E-14

      iter #  11 total cpu time :   305.0 secs   av.it.:  17.9
      thresh= 2.383E-08 alpha_mix =  0.700 |ddv_scf|^2 =  4.079E-16

      iter #  12 total cpu time :   307.7 secs   av.it.:  16.6
      thresh= 2.020E-09 alpha_mix =  0.700 |ddv_scf|^2 =  1.049E-17

      iter #  13 total cpu time :   309.1 secs   av.it.:  18.0
      thresh= 3.239E-10 alpha_mix =  0.700 |ddv_scf|^2 =  2.238E-18

      iter #  14 total cpu time :   310.4 secs   av.it.:  17.9
      thresh= 1.496E-10 alpha_mix =  0.700 |ddv_scf|^2 =  1.385E-19

      iter #  15 total cpu time :   311.4 secs   av.it.:  18.2
      thresh= 3.722E-11 alpha_mix =  0.700 |ddv_scf|^2 =  5.207E-21

      iter #  16 total cpu time :   312.5 secs   av.it.:  17.3
      thresh= 7.216E-12 alpha_mix =  0.700 |ddv_scf|^2 =  4.728E-22

     End of self-consistent calculation

     Convergence has been achieved 
 
     Number of q in the star =    1
     List of q in the star:
          1   0.000000000   0.000000000   0.000000000

          Dielectric constant in cartesian axis 

          (       5.345324281      -0.000000047      -0.000000013 )
          (      -0.000000047       5.345323948      -0.000000005 )
          (      -0.000000002      -0.000000001       1.341616169 )

          Effective charges (d Force / dE) in cartesian axis

           atom      1   Mo 
      Ex  (       -0.98729        0.00000        0.00000 )
      Ey  (        0.00000       -0.98729        0.00000 )
      Ez  (        0.00000       -0.00000       -0.09272 )
           atom      2   S  
      Ex  (        0.49356        0.00000        0.00000 )
      Ey  (       -0.00000        0.49356        0.00000 )
      Ez  (       -0.00000       -0.00000        0.04589 )
           atom      3   S  
      Ex  (        0.49357       -0.00000        0.00000 )
      Ey  (       -0.00000        0.49357        0.00000 )
      Ez  (        0.00000       -0.00000        0.04589 )

     Diagonalizing the dynamical matrix

     q = (    0.000000000   0.000000000   0.000000000 ) 

 **************************************************************************
     freq (    1) =       0.128834 [THz] =       4.297446 [cm-1]
     freq (    2) =       0.128877 [THz] =       4.298879 [cm-1]
     freq (    3) =       0.195310 [THz] =       6.514852 [cm-1]
     freq (    4) =       8.289741 [THz] =     276.515988 [cm-1]
     freq (    5) =       8.289742 [THz] =     276.516027 [cm-1]
     freq (    6) =      11.192201 [THz] =     373.331646 [cm-1]
     freq (    7) =      11.192204 [THz] =     373.331724 [cm-1]
     freq (    8) =      11.887603 [THz] =     396.527738 [cm-1]
     freq (    9) =      13.746010 [THz] =     458.517528 [cm-1]
 **************************************************************************

     Mode symmetry, C_1 (1)     point group:

     freq (   1-   1) =          4.3  [cm-1]   --> A               I+R
     freq (   2-   2) =          4.3  [cm-1]   --> A               I+R
     freq (   3-   3) =          6.5  [cm-1]   --> A               I+R
     freq (   4-   4) =        276.5  [cm-1]   --> A               I+R
     freq (   5-   5) =        276.5  [cm-1]   --> A               I+R
     freq (   6-   6) =        373.3  [cm-1]   --> A               I+R
     freq (   7-   7) =        373.3  [cm-1]   --> A               I+R
     freq (   8-   8) =        396.5  [cm-1]   --> A               I+R
     freq (   9-   9) =        458.5  [cm-1]   --> A               I+R
 
     PHONON       :   4m45.94s CPU   5m13.17s WALL

     INITIALIZATION: 
     phq_setup    :      0.01s CPU      0.05s WALL (       1 calls)
     phq_init     :      0.07s CPU      0.09s WALL (       1 calls)
 
     phq_init     :      0.07s CPU      0.09s WALL (       1 calls)
     init_vloc    :      0.01s CPU      0.01s WALL (       1 calls)
     init_us_1    :      0.00s CPU      0.00s WALL (       1 calls)
 
     DIELECTRIC CONSTANT AND EFFECTIVE CHARGES:
     solve_e      :     79.03s CPU     85.12s WALL (       1 calls)
     dielec       :      0.00s CPU      0.02s WALL (       1 calls)
     zstar_eu     :      0.41s CPU      0.43s WALL (       1 calls)
 
     DYNAMICAL MATRIX:
     dynmat0      :      0.03s CPU      0.04s WALL (       1 calls)
     phqscf       :    205.58s CPU    225.55s WALL (       1 calls)
     dynmatrix    :      0.12s CPU      0.17s WALL (       1 calls)
 
     phqscf       :    205.58s CPU    225.55s WALL (       1 calls)
     solve_linter :    205.48s CPU    224.39s WALL (       9 calls)
     drhodv       :      0.09s CPU      0.09s WALL (       9 calls)
 
     dynmat0      :      0.03s CPU      0.04s WALL (       1 calls)
     dynmat_us    :      0.02s CPU      0.02s WALL (       1 calls)
     d2ionq       :      0.00s CPU      0.00s WALL (       1 calls)
 
     dynmat_us    :      0.02s CPU      0.02s WALL (       1 calls)
 
     phqscf       :    205.58s CPU    225.55s WALL (       1 calls)
     solve_linter :    205.48s CPU    224.39s WALL (       9 calls)
 
     solve_linter :    205.48s CPU    224.39s WALL (       9 calls)
     dvqpsi_us    :      0.80s CPU      0.83s WALL (     180 calls)
     ortho        :      0.41s CPU      0.42s WALL (    2080 calls)
     cgsolve      :    156.51s CPU    161.60s WALL (    2080 calls)
     incdrhoscf   :     10.71s CPU     11.24s WALL (    2050 calls)
     vpsifft      :      5.12s CPU      5.42s WALL (    1270 calls)
     dv_of_drho   :      1.06s CPU      1.11s WALL (     205 calls)
     mix_pot      :      0.46s CPU      1.78s WALL (     159 calls)
     psymdvscf    :      4.75s CPU      4.77s WALL (     136 calls)
 
     dvqpsi_us    :      0.80s CPU      0.83s WALL (     180 calls)
     dvqpsi_us_on :      0.05s CPU      0.05s WALL (     180 calls)
 
     cgsolve      :    156.51s CPU    161.60s WALL (    2080 calls)
     ch_psi       :    150.85s CPU    155.75s WALL (   50639 calls)
 
     ch_psi       :    150.85s CPU    155.75s WALL (   50639 calls)
     h_psi        :    140.20s CPU    144.78s WALL (   50639 calls)
     last         :      9.08s CPU      9.36s WALL (   50639 calls)
 
     h_psi        :    140.20s CPU    144.78s WALL (   50639 calls)
     add_vuspsi   :      2.31s CPU      2.39s WALL (   50639 calls)
 
     incdrhoscf   :     10.71s CPU     11.24s WALL (    2050 calls)
 
 
      General routines
     calbec       :      8.76s CPU      9.05s WALL (  101768 calls)
     fft          :      0.62s CPU      0.65s WALL (    2269 calls)
     ffts         :      0.07s CPU      0.07s WALL (     261 calls)
     fftw         :    135.66s CPU    140.34s WALL ( 1023630 calls)
     davcio       :      0.66s CPU      4.01s WALL (    9916 calls)
     write_rec    :      0.65s CPU     15.79s WALL (     168 calls)
 
 
     PHONON       :   4m45.94s CPU   5m13.17s WALL

 
   This run was terminated on:   3:48:26   3Nov2021            

=------------------------------------------------------------------------------=
   JOB DONE.
=------------------------------------------------------------------------------=
TACC:  Shutdown complete. Exiting. 
