TACC:  Starting up job 3726884 
TACC:  Starting parallel tasks... 

     Program PWSCF v.6.7MaX starts on  3Nov2021 at  3:43: 0 

     This program is part of the open-source Quantum ESPRESSO suite
     for quantum simulation of materials; please cite
         "P. Giannozzi et al., J. Phys.:Condens. Matter 21 395502 (2009);
         "P. Giannozzi et al., J. Phys.:Condens. Matter 29 465901 (2017);
          URL http://www.quantum-espresso.org", 
     in publications or presentations arising from this work. More details at
     http://www.quantum-espresso.org/quote

     Parallel version (MPI), running on   224 processors

     MPI processes distributed on     4 nodes
     K-points division:     npool     =       8
     R & G space division:  proc/nbgrp/npool/nimage =      28
     Waiting for input...
     Reading input from standard input
Warning: card &CELL ignored
Warning: card / ignored

     Current dimensions of program PWSCF are:
     Max number of different atomic species (ntypx) = 10
     Max number of k-points (npk) =  40000
     Max angular momentum in pseudopotentials (lmaxx) =  3
     Message from routine read_pp_mesh:
     mesh size missing, using the one in header
     Message from routine read_pp_mesh:
     mesh size missing, using the one in header

     Subspace diagonalization in iterative solution of the eigenvalue problem:
     a serial algorithm will be used

 
     Parallelization info
     --------------------
     sticks:   dense  smooth     PW     G-vecs:    dense   smooth      PW
     Min          32      32     10                 4880     4880     824
     Max          33      33     11                 4893     4893     854
     Sum         913     913    283               136861   136861   23317
 


     bravais-lattice index     =            4
     lattice parameter (alat)  =       6.0189  a.u.
     unit-cell volume          =    1185.7697 (a.u.)^3
     number of atoms/cell      =            3
     number of atomic types    =            2
     number of electrons       =        26.00
     number of Kohn-Sham states=           13
     kinetic-energy cutoff     =      90.0000  Ry
     charge density cutoff     =     360.0000  Ry
     scf convergence threshold =      1.0E-12
     mixing beta               =       0.7000
     number of iterations used =            8  plain     mixing
     Exchange-correlation= PBE
                           (   1   4   3   4   0   0   0)

     celldm(1)=   6.018946  celldm(2)=   0.000000  celldm(3)=   6.279260
     celldm(4)=   0.000000  celldm(5)=   0.000000  celldm(6)=   0.000000

     crystal axes: (cart. coord. in units of alat)
               a(1) = (   1.000000   0.000000   0.000000 )  
               a(2) = (  -0.500000   0.866025   0.000000 )  
               a(3) = (   0.000000   0.000000   6.279260 )  

     reciprocal axes: (cart. coord. in units 2 pi/alat)
               b(1) = (  1.000000  0.577350  0.000000 )  
               b(2) = (  0.000000  1.154701  0.000000 )  
               b(3) = (  0.000000  0.000000  0.159254 )  


     PseudoPot. # 1 for Mo read from file:
     ./Mo_ONCV_PBE-1.2.upf
     MD5 check sum: 2665c9f4159700498d9a5f7573bd8e9f
     Pseudo is Norm-conserving, Zval = 14.0
     Generated using ONCVPSP code by D. R. Hamann
     Using radial grid of  602 points,  6 beta functions with: 
                l(1) =   0
                l(2) =   0
                l(3) =   1
                l(4) =   1
                l(5) =   2
                l(6) =   2

     PseudoPot. # 2 for S  read from file:
     ./S_ONCV_PBE-1.2.upf
     MD5 check sum: f9d020296ee6110346977bfd66d424f6
     Pseudo is Norm-conserving, Zval =  6.0
     Generated using ONCVPSP code by D. R. Hamann
     Using radial grid of  602 points,  4 beta functions with: 
                l(1) =   0
                l(2) =   0
                l(3) =   1
                l(4) =   1

     atomic species   valence    mass     pseudopotential
        Mo            14.00    95.95000     Mo( 1.00)
        S              6.00    32.06000     S ( 1.00)

     No symmetry found


                                    s                        frac. trans.

      isym =  1     identity                                     

 cryst.   s( 1) = (     1          0          0      )
                  (     0          1          0      )
                  (     0          0          1      )

 cart.    s( 1) = (  1.0000000  0.0000000  0.0000000 )
                  (  0.0000000  1.0000000  0.0000000 )
                  (  0.0000000  0.0000000  1.0000000 )


     point group C_1 (1)    
     there are  1 classes
     the character table:

       E    
A      1.00

     the symmetry operations in each class and the name of the first element:

     E        1
          identity                                               

   Cartesian axes

     site n.     atom                  positions (alat units)
         1           Mo  tau(   1) = (   0.0000000   0.0000000   0.6279260  )
         2           S   tau(   2) = (  -0.0000000   0.5773503   0.1368723  )
         3           S   tau(   3) = (  -0.0000000   0.5773503   1.1189797  )

   Crystallographic axes

     site n.     atom                  positions (cryst. coord.)
         1           Mo  tau(   1) = (  0.0000000  0.0000000  0.1000000  )
         2           S   tau(   2) = (  0.3333333  0.6666667  0.0217975  )
         3           S   tau(   3) = (  0.3333333  0.6666667  0.1782025  )

     number of k points=    74
                       cart. coord. in units 2pi/alat
        k(    1) = (   0.0000000   0.0000000   0.0000000), wk =   0.0138889
        k(    2) = (   0.0000000   0.0962250   0.0000000), wk =   0.0277778
        k(    3) = (   0.0000000   0.1924501   0.0000000), wk =   0.0277778
        k(    4) = (   0.0000000   0.2886751   0.0000000), wk =   0.0277778
        k(    5) = (   0.0000000   0.3849002   0.0000000), wk =   0.0277778
        k(    6) = (   0.0000000   0.4811252   0.0000000), wk =   0.0277778
        k(    7) = (   0.0000000  -0.5773503   0.0000000), wk =   0.0138889
        k(    8) = (   0.0833333   0.0481125   0.0000000), wk =   0.0277778
        k(    9) = (   0.0833333   0.1443376   0.0000000), wk =   0.0277778
        k(   10) = (   0.0833333   0.2405626   0.0000000), wk =   0.0277778
        k(   11) = (   0.0833333   0.3367877   0.0000000), wk =   0.0277778
        k(   12) = (   0.0833333   0.4330127   0.0000000), wk =   0.0277778
        k(   13) = (   0.0833333   0.5292377   0.0000000), wk =   0.0277778
        k(   14) = (   0.0833333  -0.5292377   0.0000000), wk =   0.0277778
        k(   15) = (   0.0833333  -0.4330127   0.0000000), wk =   0.0277778
        k(   16) = (   0.0833333  -0.3367877   0.0000000), wk =   0.0277778
        k(   17) = (   0.0833333  -0.2405626   0.0000000), wk =   0.0277778
        k(   18) = (   0.0833333  -0.1443376   0.0000000), wk =   0.0277778
        k(   19) = (   0.0833333  -0.0481125   0.0000000), wk =   0.0277778
        k(   20) = (   0.1666667   0.0962250   0.0000000), wk =   0.0277778
        k(   21) = (   0.1666667   0.1924501   0.0000000), wk =   0.0277778
        k(   22) = (   0.1666667   0.2886751   0.0000000), wk =   0.0277778
        k(   23) = (   0.1666667   0.3849002   0.0000000), wk =   0.0277778
        k(   24) = (   0.1666667   0.4811252   0.0000000), wk =   0.0277778
        k(   25) = (   0.1666667   0.5773503   0.0000000), wk =   0.0277778
        k(   26) = (   0.1666667  -0.4811252   0.0000000), wk =   0.0277778
        k(   27) = (   0.1666667  -0.3849002   0.0000000), wk =   0.0277778
        k(   28) = (   0.1666667  -0.2886751   0.0000000), wk =   0.0277778
        k(   29) = (   0.1666667  -0.1924501   0.0000000), wk =   0.0277778
        k(   30) = (   0.1666667  -0.0962250   0.0000000), wk =   0.0277778
        k(   31) = (   0.1666667  -0.0000000   0.0000000), wk =   0.0277778
        k(   32) = (   0.2500000   0.1443376   0.0000000), wk =   0.0277778
        k(   33) = (   0.2500000   0.2405626   0.0000000), wk =   0.0277778
        k(   34) = (   0.2500000   0.3367877   0.0000000), wk =   0.0277778
        k(   35) = (   0.2500000   0.4330127   0.0000000), wk =   0.0277778
        k(   36) = (   0.2500000   0.5292377   0.0000000), wk =   0.0277778
        k(   37) = (   0.2500000   0.6254628   0.0000000), wk =   0.0277778
        k(   38) = (   0.2500000  -0.4330127   0.0000000), wk =   0.0277778
        k(   39) = (   0.2500000  -0.3367877   0.0000000), wk =   0.0277778
        k(   40) = (   0.2500000  -0.2405626   0.0000000), wk =   0.0277778
        k(   41) = (   0.2500000  -0.1443376   0.0000000), wk =   0.0277778
        k(   42) = (   0.2500000  -0.0481125   0.0000000), wk =   0.0277778
        k(   43) = (   0.2500000   0.0481125   0.0000000), wk =   0.0277778
        k(   44) = (   0.3333333   0.1924501   0.0000000), wk =   0.0277778
        k(   45) = (   0.3333333   0.2886751   0.0000000), wk =   0.0277778
        k(   46) = (   0.3333333   0.3849002   0.0000000), wk =   0.0277778
        k(   47) = (   0.3333333   0.4811252   0.0000000), wk =   0.0277778
        k(   48) = (   0.3333333   0.5773503   0.0000000), wk =   0.0277778
        k(   49) = (   0.3333333   0.6735753   0.0000000), wk =   0.0277778
        k(   50) = (   0.3333333  -0.3849002   0.0000000), wk =   0.0277778
        k(   51) = (   0.3333333  -0.2886751   0.0000000), wk =   0.0277778
        k(   52) = (   0.3333333  -0.1924501   0.0000000), wk =   0.0277778
        k(   53) = (   0.3333333  -0.0962250   0.0000000), wk =   0.0277778
        k(   54) = (   0.3333333   0.0000000   0.0000000), wk =   0.0277778
        k(   55) = (   0.3333333   0.0962250   0.0000000), wk =   0.0277778
        k(   56) = (   0.4166667   0.2405626   0.0000000), wk =   0.0277778
        k(   57) = (   0.4166667   0.3367877   0.0000000), wk =   0.0277778
        k(   58) = (   0.4166667   0.4330127   0.0000000), wk =   0.0277778
        k(   59) = (   0.4166667   0.5292377   0.0000000), wk =   0.0277778
        k(   60) = (   0.4166667   0.6254628   0.0000000), wk =   0.0277778
        k(   61) = (   0.4166667   0.7216878   0.0000000), wk =   0.0277778
        k(   62) = (   0.4166667  -0.3367877   0.0000000), wk =   0.0277778
        k(   63) = (   0.4166667  -0.2405626   0.0000000), wk =   0.0277778
        k(   64) = (   0.4166667  -0.1443376   0.0000000), wk =   0.0277778
        k(   65) = (   0.4166667  -0.0481125   0.0000000), wk =   0.0277778
        k(   66) = (   0.4166667   0.0481125   0.0000000), wk =   0.0277778
        k(   67) = (   0.4166667   0.1443376   0.0000000), wk =   0.0277778
        k(   68) = (  -0.5000000  -0.2886751   0.0000000), wk =   0.0138889
        k(   69) = (  -0.5000000  -0.1924501   0.0000000), wk =   0.0277778
        k(   70) = (  -0.5000000  -0.0962250   0.0000000), wk =   0.0277778
        k(   71) = (  -0.5000000   0.0000000   0.0000000), wk =   0.0277778
        k(   72) = (  -0.5000000   0.0962250   0.0000000), wk =   0.0277778
        k(   73) = (  -0.5000000   0.1924501   0.0000000), wk =   0.0277778
        k(   74) = (  -0.5000000  -0.8660254   0.0000000), wk =   0.0138889

                       cryst. coord.
        k(    1) = (   0.0000000   0.0000000   0.0000000), wk =   0.0138889
        k(    2) = (   0.0000000   0.0833333   0.0000000), wk =   0.0277778
        k(    3) = (   0.0000000   0.1666667   0.0000000), wk =   0.0277778
        k(    4) = (   0.0000000   0.2500000   0.0000000), wk =   0.0277778
        k(    5) = (   0.0000000   0.3333333   0.0000000), wk =   0.0277778
        k(    6) = (   0.0000000   0.4166667   0.0000000), wk =   0.0277778
        k(    7) = (   0.0000000  -0.5000000   0.0000000), wk =   0.0138889
        k(    8) = (   0.0833333   0.0000000   0.0000000), wk =   0.0277778
        k(    9) = (   0.0833333   0.0833333   0.0000000), wk =   0.0277778
        k(   10) = (   0.0833333   0.1666667   0.0000000), wk =   0.0277778
        k(   11) = (   0.0833333   0.2500000   0.0000000), wk =   0.0277778
        k(   12) = (   0.0833333   0.3333333   0.0000000), wk =   0.0277778
        k(   13) = (   0.0833333   0.4166667   0.0000000), wk =   0.0277778
        k(   14) = (   0.0833333  -0.5000000   0.0000000), wk =   0.0277778
        k(   15) = (   0.0833333  -0.4166667   0.0000000), wk =   0.0277778
        k(   16) = (   0.0833333  -0.3333333   0.0000000), wk =   0.0277778
        k(   17) = (   0.0833333  -0.2500000   0.0000000), wk =   0.0277778
        k(   18) = (   0.0833333  -0.1666667   0.0000000), wk =   0.0277778
        k(   19) = (   0.0833333  -0.0833333   0.0000000), wk =   0.0277778
        k(   20) = (   0.1666667   0.0000000   0.0000000), wk =   0.0277778
        k(   21) = (   0.1666667   0.0833333   0.0000000), wk =   0.0277778
        k(   22) = (   0.1666667   0.1666667   0.0000000), wk =   0.0277778
        k(   23) = (   0.1666667   0.2500000   0.0000000), wk =   0.0277778
        k(   24) = (   0.1666667   0.3333333   0.0000000), wk =   0.0277778
        k(   25) = (   0.1666667   0.4166667   0.0000000), wk =   0.0277778
        k(   26) = (   0.1666667  -0.5000000   0.0000000), wk =   0.0277778
        k(   27) = (   0.1666667  -0.4166667   0.0000000), wk =   0.0277778
        k(   28) = (   0.1666667  -0.3333333   0.0000000), wk =   0.0277778
        k(   29) = (   0.1666667  -0.2500000   0.0000000), wk =   0.0277778
        k(   30) = (   0.1666667  -0.1666667   0.0000000), wk =   0.0277778
        k(   31) = (   0.1666667  -0.0833333   0.0000000), wk =   0.0277778
        k(   32) = (   0.2500000   0.0000000   0.0000000), wk =   0.0277778
        k(   33) = (   0.2500000   0.0833333   0.0000000), wk =   0.0277778
        k(   34) = (   0.2500000   0.1666667   0.0000000), wk =   0.0277778
        k(   35) = (   0.2500000   0.2500000   0.0000000), wk =   0.0277778
        k(   36) = (   0.2500000   0.3333333   0.0000000), wk =   0.0277778
        k(   37) = (   0.2500000   0.4166667   0.0000000), wk =   0.0277778
        k(   38) = (   0.2500000  -0.5000000   0.0000000), wk =   0.0277778
        k(   39) = (   0.2500000  -0.4166667   0.0000000), wk =   0.0277778
        k(   40) = (   0.2500000  -0.3333333   0.0000000), wk =   0.0277778
        k(   41) = (   0.2500000  -0.2500000   0.0000000), wk =   0.0277778
        k(   42) = (   0.2500000  -0.1666667   0.0000000), wk =   0.0277778
        k(   43) = (   0.2500000  -0.0833333   0.0000000), wk =   0.0277778
        k(   44) = (   0.3333333   0.0000000   0.0000000), wk =   0.0277778
        k(   45) = (   0.3333333   0.0833333   0.0000000), wk =   0.0277778
        k(   46) = (   0.3333333   0.1666667   0.0000000), wk =   0.0277778
        k(   47) = (   0.3333333   0.2500000   0.0000000), wk =   0.0277778
        k(   48) = (   0.3333333   0.3333333   0.0000000), wk =   0.0277778
        k(   49) = (   0.3333333   0.4166667   0.0000000), wk =   0.0277778
        k(   50) = (   0.3333333  -0.5000000   0.0000000), wk =   0.0277778
        k(   51) = (   0.3333333  -0.4166667   0.0000000), wk =   0.0277778
        k(   52) = (   0.3333333  -0.3333333   0.0000000), wk =   0.0277778
        k(   53) = (   0.3333333  -0.2500000   0.0000000), wk =   0.0277778
        k(   54) = (   0.3333333  -0.1666667   0.0000000), wk =   0.0277778
        k(   55) = (   0.3333333  -0.0833333   0.0000000), wk =   0.0277778
        k(   56) = (   0.4166667   0.0000000   0.0000000), wk =   0.0277778
        k(   57) = (   0.4166667   0.0833333   0.0000000), wk =   0.0277778
        k(   58) = (   0.4166667   0.1666667   0.0000000), wk =   0.0277778
        k(   59) = (   0.4166667   0.2500000   0.0000000), wk =   0.0277778
        k(   60) = (   0.4166667   0.3333333   0.0000000), wk =   0.0277778
        k(   61) = (   0.4166667   0.4166667   0.0000000), wk =   0.0277778
        k(   62) = (   0.4166667  -0.5000000   0.0000000), wk =   0.0277778
        k(   63) = (   0.4166667  -0.4166667   0.0000000), wk =   0.0277778
        k(   64) = (   0.4166667  -0.3333333   0.0000000), wk =   0.0277778
        k(   65) = (   0.4166667  -0.2500000   0.0000000), wk =   0.0277778
        k(   66) = (   0.4166667  -0.1666667   0.0000000), wk =   0.0277778
        k(   67) = (   0.4166667  -0.0833333   0.0000000), wk =   0.0277778
        k(   68) = (  -0.5000000   0.0000000   0.0000000), wk =   0.0138889
        k(   69) = (  -0.5000000   0.0833333   0.0000000), wk =   0.0277778
        k(   70) = (  -0.5000000   0.1666667   0.0000000), wk =   0.0277778
        k(   71) = (  -0.5000000   0.2500000   0.0000000), wk =   0.0277778
        k(   72) = (  -0.5000000   0.3333333   0.0000000), wk =   0.0277778
        k(   73) = (  -0.5000000   0.4166667   0.0000000), wk =   0.0277778
        k(   74) = (  -0.5000000  -0.5000000   0.0000000), wk =   0.0138889

     Dense  grid:   136861 G-vectors     FFT dimensions: (  40,  40, 240)

     Dynamical RAM for                 wfc:       0.12 MB

     Dynamical RAM for     wfc (w. buffer):       1.33 MB

     Dynamical RAM for           str. fact:       0.15 MB

     Dynamical RAM for           local pot:       0.00 MB

     Dynamical RAM for          nlocal pot:       0.32 MB

     Dynamical RAM for                qrad:       3.05 MB

     Dynamical RAM for          rho,v,vnew:       0.55 MB

     Dynamical RAM for               rhoin:       0.18 MB

     Dynamical RAM for            rho*nmix:       1.19 MB

     Dynamical RAM for           G-vectors:       0.32 MB

     Dynamical RAM for          h,s,v(r/c):       0.03 MB

     Dynamical RAM for          <psi|beta>:       0.01 MB

     Dynamical RAM for                 psi:       0.24 MB

     Dynamical RAM for                hpsi:       0.24 MB

     Dynamical RAM for      wfcinit/wfcrot:       0.25 MB

     Estimated static dynamical RAM per process >       7.86 MB

     Estimated max dynamical RAM per process >       8.38 MB

     Estimated total dynamical RAM >       1.83 GB

     Initial potential from superposition of free atoms

     starting charge   25.88865, renormalised to   26.00000

     negative rho (up, down):  2.311E-04 0.000E+00
     Starting wfcs are random

     total cpu time spent up to now is        0.6 secs

     Self-consistent Calculation

     iteration #  1     ecut=    90.00 Ry     beta= 0.70
     Davidson diagonalization with overlap
     ethr =  1.00E-02,  avg # of iterations = 10.6

     Threshold (ethr) on eigenvalues was too large:
     Diagonalizing with lowered threshold

     Davidson diagonalization with overlap
     ethr =  7.89E-04,  avg # of iterations =  4.3

     negative rho (up, down):  1.714E-05 0.000E+00

     total cpu time spent up to now is        1.3 secs

     total energy              =    -178.20835111 Ry
     estimated scf accuracy    <       0.10547871 Ry

     iteration #  2     ecut=    90.00 Ry     beta= 0.70
     Davidson diagonalization with overlap
     ethr =  4.06E-04,  avg # of iterations =  5.1

     negative rho (up, down):  8.882E-06 0.000E+00

     total cpu time spent up to now is        1.6 secs

     total energy              =    -178.20968647 Ry
     estimated scf accuracy    <       0.17992953 Ry

     iteration #  3     ecut=    90.00 Ry     beta= 0.70
     Davidson diagonalization with overlap
     ethr =  4.06E-04,  avg # of iterations =  4.2

     negative rho (up, down):  3.849E-06 0.000E+00

     total cpu time spent up to now is        1.8 secs

     total energy              =    -178.24637802 Ry
     estimated scf accuracy    <       0.05122893 Ry

     iteration #  4     ecut=    90.00 Ry     beta= 0.70
     Davidson diagonalization with overlap
     ethr =  1.97E-04,  avg # of iterations =  2.3

     negative rho (up, down):  1.464E-08 0.000E+00

     total cpu time spent up to now is        2.0 secs

     total energy              =    -178.25206112 Ry
     estimated scf accuracy    <       0.00345038 Ry

     iteration #  5     ecut=    90.00 Ry     beta= 0.70
     Davidson diagonalization with overlap
     ethr =  1.33E-05,  avg # of iterations =  5.3

     negative rho (up, down):  1.077E-08 0.000E+00

     total cpu time spent up to now is        2.2 secs

     total energy              =    -178.25441415 Ry
     estimated scf accuracy    <       0.00813120 Ry

     iteration #  6     ecut=    90.00 Ry     beta= 0.70
     Davidson diagonalization with overlap
     ethr =  1.33E-05,  avg # of iterations =  2.1

     negative rho (up, down):  2.143E-08 0.000E+00

     total cpu time spent up to now is        2.4 secs

     total energy              =    -178.25391999 Ry
     estimated scf accuracy    <       0.00370580 Ry

     iteration #  7     ecut=    90.00 Ry     beta= 0.70
     Davidson diagonalization with overlap
     ethr =  1.33E-05,  avg # of iterations =  2.6

     negative rho (up, down):  1.091E-08 0.000E+00

     total cpu time spent up to now is        2.6 secs

     total energy              =    -178.25423516 Ry
     estimated scf accuracy    <       0.00034511 Ry

     iteration #  8     ecut=    90.00 Ry     beta= 0.70
     Davidson diagonalization with overlap
     ethr =  1.33E-06,  avg # of iterations =  5.0

     total cpu time spent up to now is        2.8 secs

     total energy              =    -178.25440836 Ry
     estimated scf accuracy    <       0.00017746 Ry

     iteration #  9     ecut=    90.00 Ry     beta= 0.70
     Davidson diagonalization with overlap
     ethr =  6.83E-07,  avg # of iterations =  1.2

     total cpu time spent up to now is        3.0 secs

     total energy              =    -178.25438815 Ry
     estimated scf accuracy    <       0.00008992 Ry

     iteration # 10     ecut=    90.00 Ry     beta= 0.70
     Davidson diagonalization with overlap
     ethr =  3.46E-07,  avg # of iterations =  3.8

     total cpu time spent up to now is        3.2 secs

     total energy              =    -178.25440565 Ry
     estimated scf accuracy    <       0.00000048 Ry

     iteration # 11     ecut=    90.00 Ry     beta= 0.70
     Davidson diagonalization with overlap
     ethr =  1.83E-09,  avg # of iterations =  7.1

     total cpu time spent up to now is        3.5 secs

     total energy              =    -178.25440694 Ry
     estimated scf accuracy    <       0.00000214 Ry

     iteration # 12     ecut=    90.00 Ry     beta= 0.70
     Davidson diagonalization with overlap
     ethr =  1.83E-09,  avg # of iterations =  3.5

     total cpu time spent up to now is        3.8 secs

     total energy              =    -178.25440687 Ry
     estimated scf accuracy    <       0.00000044 Ry

     iteration # 13     ecut=    90.00 Ry     beta= 0.70
     Davidson diagonalization with overlap
     ethr =  1.68E-09,  avg # of iterations =  4.5

     total cpu time spent up to now is        4.0 secs

     total energy              =    -178.25440704 Ry
     estimated scf accuracy    <       0.00000029 Ry

     iteration # 14     ecut=    90.00 Ry     beta= 0.70
     Davidson diagonalization with overlap
     ethr =  1.13E-09,  avg # of iterations =  1.3

     total cpu time spent up to now is        4.1 secs

     total energy              =    -178.25440701 Ry
     estimated scf accuracy    <       0.00000014 Ry

     iteration # 15     ecut=    90.00 Ry     beta= 0.70
     Davidson diagonalization with overlap
     ethr =  5.44E-10,  avg # of iterations =  3.9

     total cpu time spent up to now is        4.4 secs

     total energy              =    -178.25440704 Ry
     estimated scf accuracy    <       0.00000001 Ry

     iteration # 16     ecut=    90.00 Ry     beta= 0.70
     Davidson diagonalization with overlap
     ethr =  4.01E-11,  avg # of iterations =  3.8

     total cpu time spent up to now is        4.6 secs

     total energy              =    -178.25440704 Ry
     estimated scf accuracy    <          1.1E-09 Ry

     iteration # 17     ecut=    90.00 Ry     beta= 0.70
     Davidson diagonalization with overlap
     ethr =  4.33E-12,  avg # of iterations =  4.3

     total cpu time spent up to now is        4.8 secs

     total energy              =    -178.25440704 Ry
     estimated scf accuracy    <          3.0E-09 Ry

     iteration # 18     ecut=    90.00 Ry     beta= 0.70
     Davidson diagonalization with overlap
     ethr =  4.33E-12,  avg # of iterations =  1.0

     total cpu time spent up to now is        4.9 secs

     total energy              =    -178.25440704 Ry
     estimated scf accuracy    <          3.4E-09 Ry

     iteration # 19     ecut=    90.00 Ry     beta= 0.70
     Davidson diagonalization with overlap
     ethr =  4.33E-12,  avg # of iterations =  2.2

     total cpu time spent up to now is        5.1 secs

     total energy              =    -178.25440704 Ry
     estimated scf accuracy    <          1.2E-09 Ry

     iteration # 20     ecut=    90.00 Ry     beta= 0.70
     Davidson diagonalization with overlap
     ethr =  4.33E-12,  avg # of iterations =  4.1

     total cpu time spent up to now is        5.3 secs

     total energy              =    -178.25440704 Ry
     estimated scf accuracy    <          1.2E-10 Ry

     iteration # 21     ecut=    90.00 Ry     beta= 0.70
     Davidson diagonalization with overlap
     ethr =  4.71E-13,  avg # of iterations =  4.0

     total cpu time spent up to now is        5.5 secs

     total energy              =    -178.25440704 Ry
     estimated scf accuracy    <          1.7E-10 Ry

     iteration # 22     ecut=    90.00 Ry     beta= 0.70
     Davidson diagonalization with overlap
     ethr =  4.71E-13,  avg # of iterations =  1.6

     total cpu time spent up to now is        5.7 secs

     total energy              =    -178.25440704 Ry
     estimated scf accuracy    <          8.3E-11 Ry

     iteration # 23     ecut=    90.00 Ry     beta= 0.70
     Davidson diagonalization with overlap
     ethr =  3.20E-13,  avg # of iterations =  1.0

     total cpu time spent up to now is        5.8 secs

     total energy              =    -178.25440704 Ry
     estimated scf accuracy    <          1.1E-10 Ry

     iteration # 24     ecut=    90.00 Ry     beta= 0.70
     Davidson diagonalization with overlap
     ethr =  3.20E-13,  avg # of iterations =  1.0

     total cpu time spent up to now is        6.0 secs

     total energy              =    -178.25440704 Ry
     estimated scf accuracy    <          8.9E-11 Ry

     iteration # 25     ecut=    90.00 Ry     beta= 0.70
     Davidson diagonalization with overlap
     ethr =  3.20E-13,  avg # of iterations =  2.8

     total cpu time spent up to now is        6.2 secs

     total energy              =    -178.25440704 Ry
     estimated scf accuracy    <          5.8E-12 Ry

     iteration # 26     ecut=    90.00 Ry     beta= 0.70
     Davidson diagonalization with overlap
     ethr =  1.00E-13,  avg # of iterations =  1.8

     total cpu time spent up to now is        6.4 secs

     total energy              =    -178.25440704 Ry
     estimated scf accuracy    <          2.3E-12 Ry

     iteration # 27     ecut=    90.00 Ry     beta= 0.70
     Davidson diagonalization with overlap
     ethr =  1.00E-13,  avg # of iterations =  1.0

     total cpu time spent up to now is        6.5 secs

     End of self-consistent calculation

          k = 0.0000 0.0000 0.0000 ( 17053 PWs)   bands (ev):

   -61.8599 -36.0021 -35.8018 -35.8018 -15.0609 -13.7618  -6.5794  -3.5928
    -3.5928  -2.7509  -2.4837  -2.4837  -0.9860

     occupation numbers 
     1.0000   1.0000   1.0000   1.0000   1.0000   1.0000   1.0000   1.0000
     1.0000   1.0000   1.0000   1.0000   1.0000

          k = 0.0000 0.0962 0.0000 ( 16981 PWs)   bands (ev):

   -61.8574 -35.9971 -35.8271 -35.8076 -14.9591 -13.7201  -6.4627  -3.8204
    -3.4859  -3.2407  -2.6464  -2.1514  -1.0383

     occupation numbers 
     1.0000   1.0000   1.0000   1.0000   1.0000   1.0000   1.0000   1.0000
     1.0000   1.0000   1.0000   1.0000   1.0000

          k = 0.0000 0.1925 0.0000 ( 17070 PWs)   bands (ev):

   -61.8506 -35.9836 -35.8957 -35.8233 -14.6699 -13.6017  -6.1690  -4.3432
    -3.8856  -3.1878  -3.0302  -2.0618  -1.2729

     occupation numbers 
     1.0000   1.0000   1.0000   1.0000   1.0000   1.0000   1.0000   1.0000
     1.0000   1.0000   1.0000   1.0000   1.0000

          k = 0.0000 0.2887 0.0000 ( 17070 PWs)   bands (ev):

   -61.8414 -35.9881 -35.9651 -35.8446 -14.2423 -13.4279  -5.9590  -4.7880
    -4.5410  -3.4610  -2.7698  -2.3051  -1.7017

     occupation numbers 
     1.0000   1.0000   1.0000   1.0000   1.0000   1.0000   1.0000   1.0000
     1.0000   1.0000   1.0000   1.0000   1.0000

          k = 0.0000 0.3849 0.0000 ( 17084 PWs)   bands (ev):

   -61.8321 -36.0793 -35.9466 -35.8659 -13.7634 -13.2370  -6.2046  -5.1462
    -4.8743  -3.8239  -2.6021  -2.3511  -1.9480

     occupation numbers 
     1.0000   1.0000   1.0000   1.0000   1.0000   1.0000   1.0000   1.0000
     1.0000   1.0000   1.0000   1.0000   1.0000

          k = 0.0000 0.4811 0.0000 ( 17130 PWs)   bands (ev):

   -61.8253 -36.1451 -35.9329 -35.8813 -13.3659 -13.0837  -6.5769  -5.5884
    -4.9654  -4.0597  -2.7908  -2.0599  -1.7785

     occupation numbers 
     1.0000   1.0000   1.0000   1.0000   1.0000   1.0000   1.0000   1.0000
     1.0000   1.0000   1.0000   1.0000   1.0000

          k = 0.0000-0.5774 0.0000 ( 17122 PWs)   bands (ev):

   -61.8228 -36.1691 -35.9279 -35.8870 -13.2069 -13.0242  -6.7351  -5.7518
    -5.0386  -4.1409  -2.8514  -1.9606  -1.6128

     occupation numbers 
     1.0000   1.0000   1.0000   1.0000   1.0000   1.0000   1.0000   1.0000
     1.0000   1.0000   1.0000   1.0000   1.0000

          k = 0.0833 0.0481 0.0000 ( 16981 PWs)   bands (ev):

   -61.8574 -35.9971 -35.8271 -35.8076 -14.9591 -13.7201  -6.4627  -3.8204
    -3.4859  -3.2407  -2.6464  -2.1514  -1.0383

     occupation numbers 
     1.0000   1.0000   1.0000   1.0000   1.0000   1.0000   1.0000   1.0000
     1.0000   1.0000   1.0000   1.0000   1.0000

          k = 0.0833 0.1443 0.0000 ( 17019 PWs)   bands (ev):

   -61.8528 -35.9879 -35.8728 -35.8196 -14.7636 -13.6399  -6.2538  -4.1886
    -3.6690  -3.2915  -3.0243  -1.9609  -1.1826

     occupation numbers 
     1.0000   1.0000   1.0000   1.0000   1.0000   1.0000   1.0000   1.0000
     1.0000   1.0000   1.0000   1.0000   1.0000

          k = 0.0833 0.2406 0.0000 ( 17072 PWs)   bands (ev):

   -61.8448 -35.9719 -35.9500 -35.8414 -14.4042 -13.4928  -5.9706  -4.6577
    -4.2113  -3.5648  -2.9812  -1.9905  -1.5276

     occupation numbers 
     1.0000   1.0000   1.0000   1.0000   1.0000   1.0000   1.0000   1.0000
     1.0000   1.0000   1.0000   1.0000   1.0000

          k = 0.0833 0.3368 0.0000 ( 17091 PWs)   bands (ev):

   -61.8355 -36.0378 -35.9534 -35.8666 -13.9474 -13.3074  -5.9974  -4.8603
    -4.8320  -3.9233  -2.7314  -2.2819  -1.8292

     occupation numbers 
     1.0000   1.0000   1.0000   1.0000   1.0000   1.0000   1.0000   1.0000
     1.0000   1.0000   1.0000   1.0000   1.0000

          k = 0.0833 0.4330 0.0000 ( 17101 PWs)   bands (ev):

   -61.8275 -36.1128 -35.9373 -35.8884 -13.5013 -13.1300  -6.3389  -5.4468
    -4.8598  -4.0896  -2.6084  -2.6063  -1.7290

     occupation numbers 
     1.0000   1.0000   1.0000   1.0000   1.0000   1.0000   1.0000   1.0000
     1.0000   1.0000   1.0000   1.0000   1.0000

          k = 0.0833 0.5292 0.0000 ( 17118 PWs)   bands (ev):

   -61.8228 -36.1557 -35.9279 -35.9010 -13.2138 -13.0188  -6.5971  -5.7879
    -4.9809  -4.1457  -2.8093  -2.4788  -1.4885

     occupation numbers 
     1.0000   1.0000   1.0000   1.0000   1.0000   1.0000   1.0000   1.0000
     1.0000   1.0000   1.0000   1.0000   1.0000

          k = 0.0833-0.5292 0.0000 ( 17118 PWs)   bands (ev):

   -61.8228 -36.1557 -35.9279 -35.9010 -13.2138 -13.0188  -6.5971  -5.7879
    -4.9809  -4.1457  -2.8093  -2.4788  -1.4885

     occupation numbers 
     1.0000   1.0000   1.0000   1.0000   1.0000   1.0000   1.0000   1.0000
     1.0000   1.0000   1.0000   1.0000   1.0000

          k = 0.0833-0.4330 0.0000 ( 17101 PWs)   bands (ev):

   -61.8275 -36.1128 -35.9373 -35.8884 -13.5013 -13.1300  -6.3389  -5.4468
    -4.8598  -4.0896  -2.6084  -2.6063  -1.7290

     occupation numbers 
     1.0000   1.0000   1.0000   1.0000   1.0000   1.0000   1.0000   1.0000
     1.0000   1.0000   1.0000   1.0000   1.0000

          k = 0.0833-0.3368 0.0000 ( 17091 PWs)   bands (ev):

   -61.8355 -36.0378 -35.9534 -35.8666 -13.9474 -13.3074  -5.9974  -4.8603
    -4.8320  -3.9233  -2.7314  -2.2819  -1.8292

     occupation numbers 
     1.0000   1.0000   1.0000   1.0000   1.0000   1.0000   1.0000   1.0000
     1.0000   1.0000   1.0000   1.0000   1.0000

          k = 0.0833-0.2406 0.0000 ( 17072 PWs)   bands (ev):

   -61.8448 -35.9719 -35.9500 -35.8414 -14.4042 -13.4928  -5.9706  -4.6577
    -4.2113  -3.5648  -2.9812  -1.9905  -1.5276

     occupation numbers 
     1.0000   1.0000   1.0000   1.0000   1.0000   1.0000   1.0000   1.0000
     1.0000   1.0000   1.0000   1.0000   1.0000

          k = 0.0833-0.1443 0.0000 ( 17019 PWs)   bands (ev):

   -61.8528 -35.9879 -35.8728 -35.8196 -14.7636 -13.6399  -6.2538  -4.1886
    -3.6690  -3.2915  -3.0243  -1.9609  -1.1826

     occupation numbers 
     1.0000   1.0000   1.0000   1.0000   1.0000   1.0000   1.0000   1.0000
     1.0000   1.0000   1.0000   1.0000   1.0000

          k = 0.0833-0.0481 0.0000 ( 16981 PWs)   bands (ev):

   -61.8574 -35.9971 -35.8271 -35.8076 -14.9591 -13.7201  -6.4627  -3.8204
    -3.4859  -3.2407  -2.6464  -2.1514  -1.0383

     occupation numbers 
     1.0000   1.0000   1.0000   1.0000   1.0000   1.0000   1.0000   1.0000
     1.0000   1.0000   1.0000   1.0000   1.0000

          k = 0.1667 0.0962 0.0000 ( 17070 PWs)   bands (ev):

   -61.8506 -35.9836 -35.8957 -35.8233 -14.6699 -13.6017  -6.1690  -4.3432
    -3.8856  -3.1878  -3.0302  -2.0618  -1.2729

     occupation numbers 
     1.0000   1.0000   1.0000   1.0000   1.0000   1.0000   1.0000   1.0000
     1.0000   1.0000   1.0000   1.0000   1.0000

          k = 0.1667 0.1925 0.0000 ( 17072 PWs)   bands (ev):

   -61.8448 -35.9719 -35.9500 -35.8414 -14.4042 -13.4928  -5.9706  -4.6577
    -4.2113  -3.5648  -2.9812  -1.9905  -1.5276

     occupation numbers 
     1.0000   1.0000   1.0000   1.0000   1.0000   1.0000   1.0000   1.0000
     1.0000   1.0000   1.0000   1.0000   1.0000

          k = 0.1667 0.2887 0.0000 ( 17077 PWs)   bands (ev):

   -61.8368 -36.0166 -35.9559 -35.8730 -14.0131 -13.3317  -5.8934  -4.7970
    -4.6400  -4.1556  -2.9475  -2.0280  -1.7703

     occupation numbers 
     1.0000   1.0000   1.0000   1.0000   1.0000   1.0000   1.0000   1.0000
     1.0000   1.0000   1.0000   1.0000   1.0000

          k = 0.1667 0.3849 0.0000 ( 17088 PWs)   bands (ev):

   -61.8287 -36.0791 -35.9398 -35.9080 -13.5801 -13.1530  -6.0806  -5.3304
    -4.7012  -4.2595  -3.2105  -2.3271  -1.7305

     occupation numbers 
     1.0000   1.0000   1.0000   1.0000   1.0000   1.0000   1.0000   1.0000
     1.0000   1.0000   1.0000   1.0000   1.0000

          k = 0.1667 0.4811 0.0000 ( 17122 PWs)   bands (ev):

   -61.8228 -36.1233 -35.9347 -35.9280 -13.2274 -13.0079  -6.2737  -5.8540
    -4.8023  -4.1785  -3.3343  -2.6909  -1.4823

     occupation numbers 
     1.0000   1.0000   1.0000   1.0000   1.0000   1.0000   1.0000   1.0000
     1.0000   1.0000   1.0000   1.0000   1.0000

          k = 0.1667 0.5774 0.0000 ( 17107 PWs)   bands (ev):

   -61.8207 -36.1392 -35.9446 -35.9236 -13.0886 -12.9512  -6.3433  -6.0441
    -4.9215  -4.1084  -3.3313  -2.8648  -1.3054

     occupation numbers 
     1.0000   1.0000   1.0000   1.0000   1.0000   1.0000   1.0000   1.0000
     1.0000   1.0000   1.0000   1.0000   1.0000

          k = 0.1667-0.4811 0.0000 ( 17122 PWs)   bands (ev):

   -61.8228 -36.1233 -35.9347 -35.9280 -13.2274 -13.0079  -6.2737  -5.8540
    -4.8023  -4.1785  -3.3343  -2.6909  -1.4823

     occupation numbers 
     1.0000   1.0000   1.0000   1.0000   1.0000   1.0000   1.0000   1.0000
     1.0000   1.0000   1.0000   1.0000   1.0000

          k = 0.1667-0.3849 0.0000 ( 17088 PWs)   bands (ev):

   -61.8287 -36.0791 -35.9398 -35.9080 -13.5801 -13.1530  -6.0806  -5.3304
    -4.7012  -4.2595  -3.2105  -2.3271  -1.7305

     occupation numbers 
     1.0000   1.0000   1.0000   1.0000   1.0000   1.0000   1.0000   1.0000
     1.0000   1.0000   1.0000   1.0000   1.0000

          k = 0.1667-0.2887 0.0000 ( 17077 PWs)   bands (ev):

   -61.8368 -36.0166 -35.9559 -35.8730 -14.0131 -13.3317  -5.8934  -4.7970
    -4.6400  -4.1556  -2.9475  -2.0280  -1.7703

     occupation numbers 
     1.0000   1.0000   1.0000   1.0000   1.0000   1.0000   1.0000   1.0000
     1.0000   1.0000   1.0000   1.0000   1.0000

          k = 0.1667-0.1925 0.0000 ( 17072 PWs)   bands (ev):

   -61.8448 -35.9719 -35.9500 -35.8414 -14.4042 -13.4928  -5.9706  -4.6577
    -4.2113  -3.5648  -2.9812  -1.9905  -1.5276

     occupation numbers 
     1.0000   1.0000   1.0000   1.0000   1.0000   1.0000   1.0000   1.0000
     1.0000   1.0000   1.0000   1.0000   1.0000

          k = 0.1667-0.0962 0.0000 ( 17070 PWs)   bands (ev):

   -61.8506 -35.9836 -35.8957 -35.8233 -14.6699 -13.6017  -6.1690  -4.3432
    -3.8856  -3.1878  -3.0302  -2.0618  -1.2729

     occupation numbers 
     1.0000   1.0000   1.0000   1.0000   1.0000   1.0000   1.0000   1.0000
     1.0000   1.0000   1.0000   1.0000   1.0000

          k = 0.1667-0.0000 0.0000 ( 17019 PWs)   bands (ev):

   -61.8528 -35.9879 -35.8728 -35.8196 -14.7636 -13.6399  -6.2538  -4.1886
    -3.6690  -3.2915  -3.0243  -1.9609  -1.1826

     occupation numbers 
     1.0000   1.0000   1.0000   1.0000   1.0000   1.0000   1.0000   1.0000
     1.0000   1.0000   1.0000   1.0000   1.0000

          k = 0.2500 0.1443 0.0000 ( 17070 PWs)   bands (ev):

   -61.8414 -35.9881 -35.9651 -35.8446 -14.2423 -13.4279  -5.9590  -4.7880
    -4.5410  -3.4610  -2.7698  -2.3051  -1.7017

     occupation numbers 
     1.0000   1.0000   1.0000   1.0000   1.0000   1.0000   1.0000   1.0000
     1.0000   1.0000   1.0000   1.0000   1.0000

          k = 0.2500 0.2406 0.0000 ( 17091 PWs)   bands (ev):

   -61.8355 -36.0378 -35.9534 -35.8666 -13.9474 -13.3074  -5.9974  -4.8603
    -4.8320  -3.9233  -2.7314  -2.2819  -1.8292

     occupation numbers 
     1.0000   1.0000   1.0000   1.0000   1.0000   1.0000   1.0000   1.0000
     1.0000   1.0000   1.0000   1.0000   1.0000

          k = 0.2500 0.3368 0.0000 ( 17088 PWs)   bands (ev):

   -61.8287 -36.0791 -35.9398 -35.9080 -13.5801 -13.1530  -6.0806  -5.3304
    -4.7012  -4.2595  -3.2105  -2.3271  -1.7305

     occupation numbers 
     1.0000   1.0000   1.0000   1.0000   1.0000   1.0000   1.0000   1.0000
     1.0000   1.0000   1.0000   1.0000   1.0000

          k = 0.2500 0.4330 0.0000 ( 17119 PWs)   bands (ev):

   -61.8228 -36.1016 -35.9570 -35.9280 -13.2341 -13.0025  -6.0783  -5.8845
    -4.5825  -4.2035  -3.8821  -2.6161  -1.5053

     occupation numbers 
     1.0000   1.0000   1.0000   1.0000   1.0000   1.0000   1.0000   1.0000
     1.0000   1.0000   1.0000   1.0000   1.0000

          k = 0.2500 0.5292 0.0000 ( 17157 PWs)   bands (ev):

   -61.8194 -36.1062 -35.9936 -35.9212 -13.0203 -12.9067  -6.2257  -5.9489
    -4.7895  -4.1847  -4.0083  -2.9458  -1.1963

     occupation numbers 
     1.0000   1.0000   1.0000   1.0000   1.0000   1.0000   1.0000   1.0000
     1.0000   1.0000   1.0000   1.0000   1.0000

          k = 0.2500 0.6255 0.0000 ( 17157 PWs)   bands (ev):

   -61.8194 -36.1062 -35.9936 -35.9212 -13.0203 -12.9067  -6.2257  -5.9489
    -4.7895  -4.1847  -4.0083  -2.9458  -1.1963

     occupation numbers 
     1.0000   1.0000   1.0000   1.0000   1.0000   1.0000   1.0000   1.0000
     1.0000   1.0000   1.0000   1.0000   1.0000

          k = 0.2500-0.4330 0.0000 ( 17119 PWs)   bands (ev):

   -61.8228 -36.1016 -35.9570 -35.9280 -13.2341 -13.0025  -6.0783  -5.8845
    -4.5825  -4.2035  -3.8821  -2.6161  -1.5053

     occupation numbers 
     1.0000   1.0000   1.0000   1.0000   1.0000   1.0000   1.0000   1.0000
     1.0000   1.0000   1.0000   1.0000   1.0000

          k = 0.2500-0.3368 0.0000 ( 17088 PWs)   bands (ev):

   -61.8287 -36.0791 -35.9398 -35.9080 -13.5801 -13.1530  -6.0806  -5.3304
    -4.7012  -4.2595  -3.2105  -2.3271  -1.7305

     occupation numbers 
     1.0000   1.0000   1.0000   1.0000   1.0000   1.0000   1.0000   1.0000
     1.0000   1.0000   1.0000   1.0000   1.0000

          k = 0.2500-0.2406 0.0000 ( 17091 PWs)   bands (ev):

   -61.8355 -36.0378 -35.9534 -35.8666 -13.9474 -13.3074  -5.9974  -4.8603
    -4.8320  -3.9233  -2.7314  -2.2819  -1.8292

     occupation numbers 
     1.0000   1.0000   1.0000   1.0000   1.0000   1.0000   1.0000   1.0000
     1.0000   1.0000   1.0000   1.0000   1.0000

          k = 0.2500-0.1443 0.0000 ( 17070 PWs)   bands (ev):

   -61.8414 -35.9881 -35.9651 -35.8446 -14.2423 -13.4279  -5.9590  -4.7880
    -4.5410  -3.4610  -2.7698  -2.3051  -1.7017

     occupation numbers 
     1.0000   1.0000   1.0000   1.0000   1.0000   1.0000   1.0000   1.0000
     1.0000   1.0000   1.0000   1.0000   1.0000

          k = 0.2500-0.0481 0.0000 ( 17072 PWs)   bands (ev):

   -61.8448 -35.9719 -35.9500 -35.8414 -14.4042 -13.4928  -5.9706  -4.6577
    -4.2113  -3.5648  -2.9812  -1.9905  -1.5276

     occupation numbers 
     1.0000   1.0000   1.0000   1.0000   1.0000   1.0000   1.0000   1.0000
     1.0000   1.0000   1.0000   1.0000   1.0000

          k = 0.2500 0.0481 0.0000 ( 17072 PWs)   bands (ev):

   -61.8448 -35.9719 -35.9500 -35.8414 -14.4042 -13.4928  -5.9706  -4.6577
    -4.2113  -3.5648  -2.9812  -1.9905  -1.5276

     occupation numbers 
     1.0000   1.0000   1.0000   1.0000   1.0000   1.0000   1.0000   1.0000
     1.0000   1.0000   1.0000   1.0000   1.0000

          k = 0.3333 0.1925 0.0000 ( 17084 PWs)   bands (ev):

   -61.8321 -36.0793 -35.9466 -35.8659 -13.7634 -13.2370  -6.2046  -5.1462
    -4.8743  -3.8239  -2.6021  -2.3511  -1.9480

     occupation numbers 
     1.0000   1.0000   1.0000   1.0000   1.0000   1.0000   1.0000   1.0000
     1.0000   1.0000   1.0000   1.0000   1.0000

          k = 0.3333 0.2887 0.0000 ( 17101 PWs)   bands (ev):

   -61.8275 -36.1128 -35.9373 -35.8884 -13.5013 -13.1300  -6.3389  -5.4468
    -4.8598  -4.0896  -2.6084  -2.6063  -1.7290

     occupation numbers 
     1.0000   1.0000   1.0000   1.0000   1.0000   1.0000   1.0000   1.0000
     1.0000   1.0000   1.0000   1.0000   1.0000

          k = 0.3333 0.3849 0.0000 ( 17122 PWs)   bands (ev):

   -61.8228 -36.1233 -35.9347 -35.9280 -13.2274 -13.0079  -6.2737  -5.8540
    -4.8023  -4.1785  -3.3343  -2.6909  -1.4823

     occupation numbers 
     1.0000   1.0000   1.0000   1.0000   1.0000   1.0000   1.0000   1.0000
     1.0000   1.0000   1.0000   1.0000   1.0000

          k = 0.3333 0.4811 0.0000 ( 17157 PWs)   bands (ev):

   -61.8194 -36.1062 -35.9936 -35.9212 -13.0203 -12.9067  -6.2257  -5.9489
    -4.7895  -4.1847  -4.0083  -2.9458  -1.1963

     occupation numbers 
     1.0000   1.0000   1.0000   1.0000   1.0000   1.0000   1.0000   1.0000
     1.0000   1.0000   1.0000   1.0000   1.0000

          k = 0.3333 0.5774 0.0000 ( 17163 PWs)   bands (ev):

   -61.8182 -36.0788 -36.0364 -35.9187 -12.9433 -12.8666  -6.3714  -5.5549
    -5.0352  -4.5319  -3.8491  -3.1338  -1.0063

     occupation numbers 
     1.0000   1.0000   1.0000   1.0000   1.0000   1.0000   1.0000   1.0000
     1.0000   1.0000   1.0000   1.0000   1.0000

          k = 0.3333 0.6736 0.0000 ( 17157 PWs)   bands (ev):

   -61.8194 -36.1062 -35.9936 -35.9212 -13.0203 -12.9067  -6.2257  -5.9489
    -4.7895  -4.1847  -4.0083  -2.9458  -1.1963

     occupation numbers 
     1.0000   1.0000   1.0000   1.0000   1.0000   1.0000   1.0000   1.0000
     1.0000   1.0000   1.0000   1.0000   1.0000

          k = 0.3333-0.3849 0.0000 ( 17122 PWs)   bands (ev):

   -61.8228 -36.1233 -35.9347 -35.9280 -13.2274 -13.0079  -6.2737  -5.8540
    -4.8023  -4.1785  -3.3343  -2.6909  -1.4823

     occupation numbers 
     1.0000   1.0000   1.0000   1.0000   1.0000   1.0000   1.0000   1.0000
     1.0000   1.0000   1.0000   1.0000   1.0000

          k = 0.3333-0.2887 0.0000 ( 17101 PWs)   bands (ev):

   -61.8275 -36.1128 -35.9373 -35.8884 -13.5013 -13.1300  -6.3389  -5.4468
    -4.8598  -4.0896  -2.6084  -2.6063  -1.7290

     occupation numbers 
     1.0000   1.0000   1.0000   1.0000   1.0000   1.0000   1.0000   1.0000
     1.0000   1.0000   1.0000   1.0000   1.0000

          k = 0.3333-0.1925 0.0000 ( 17084 PWs)   bands (ev):

   -61.8321 -36.0793 -35.9466 -35.8659 -13.7634 -13.2370  -6.2046  -5.1462
    -4.8743  -3.8239  -2.6021  -2.3511  -1.9480

     occupation numbers 
     1.0000   1.0000   1.0000   1.0000   1.0000   1.0000   1.0000   1.0000
     1.0000   1.0000   1.0000   1.0000   1.0000

          k = 0.3333-0.0962 0.0000 ( 17091 PWs)   bands (ev):

   -61.8355 -36.0378 -35.9534 -35.8666 -13.9474 -13.3074  -5.9974  -4.8603
    -4.8320  -3.9233  -2.7314  -2.2819  -1.8292

     occupation numbers 
     1.0000   1.0000   1.0000   1.0000   1.0000   1.0000   1.0000   1.0000
     1.0000   1.0000   1.0000   1.0000   1.0000

          k = 0.3333 0.0000 0.0000 ( 17077 PWs)   bands (ev):

   -61.8368 -36.0166 -35.9559 -35.8730 -14.0131 -13.3317  -5.8934  -4.7970
    -4.6400  -4.1556  -2.9475  -2.0280  -1.7703

     occupation numbers 
     1.0000   1.0000   1.0000   1.0000   1.0000   1.0000   1.0000   1.0000
     1.0000   1.0000   1.0000   1.0000   1.0000

          k = 0.3333 0.0962 0.0000 ( 17091 PWs)   bands (ev):

   -61.8355 -36.0378 -35.9534 -35.8666 -13.9474 -13.3074  -5.9974  -4.8603
    -4.8320  -3.9233  -2.7314  -2.2819  -1.8292

     occupation numbers 
     1.0000   1.0000   1.0000   1.0000   1.0000   1.0000   1.0000   1.0000
     1.0000   1.0000   1.0000   1.0000   1.0000

          k = 0.4167 0.2406 0.0000 ( 17130 PWs)   bands (ev):

   -61.8253 -36.1451 -35.9329 -35.8813 -13.3659 -13.0837  -6.5769  -5.5884
    -4.9654  -4.0597  -2.7908  -2.0599  -1.7785

     occupation numbers 
     1.0000   1.0000   1.0000   1.0000   1.0000   1.0000   1.0000   1.0000
     1.0000   1.0000   1.0000   1.0000   1.0000

          k = 0.4167 0.3368 0.0000 ( 17118 PWs)   bands (ev):

   -61.8228 -36.1557 -35.9279 -35.9010 -13.2138 -13.0188  -6.5971  -5.7879
    -4.9809  -4.1457  -2.8093  -2.4788  -1.4885

     occupation numbers 
     1.0000   1.0000   1.0000   1.0000   1.0000   1.0000   1.0000   1.0000
     1.0000   1.0000   1.0000   1.0000   1.0000

          k = 0.4167 0.4330 0.0000 ( 17107 PWs)   bands (ev):

   -61.8207 -36.1392 -35.9446 -35.9236 -13.0886 -12.9512  -6.3433  -6.0441
    -4.9215  -4.1084  -3.3313  -2.8648  -1.3054

     occupation numbers 
     1.0000   1.0000   1.0000   1.0000   1.0000   1.0000   1.0000   1.0000
     1.0000   1.0000   1.0000   1.0000   1.0000

          k = 0.4167 0.5292 0.0000 ( 17157 PWs)   bands (ev):

   -61.8194 -36.1062 -35.9936 -35.9212 -13.0203 -12.9067  -6.2257  -5.9489
    -4.7895  -4.1847  -4.0083  -2.9458  -1.1963

     occupation numbers 
     1.0000   1.0000   1.0000   1.0000   1.0000   1.0000   1.0000   1.0000
     1.0000   1.0000   1.0000   1.0000   1.0000

          k = 0.4167 0.6255 0.0000 ( 17157 PWs)   bands (ev):

   -61.8194 -36.1062 -35.9936 -35.9212 -13.0203 -12.9067  -6.2257  -5.9489
    -4.7895  -4.1847  -4.0083  -2.9458  -1.1963

     occupation numbers 
     1.0000   1.0000   1.0000   1.0000   1.0000   1.0000   1.0000   1.0000
     1.0000   1.0000   1.0000   1.0000   1.0000

          k = 0.4167 0.7217 0.0000 ( 17107 PWs)   bands (ev):

   -61.8207 -36.1392 -35.9446 -35.9236 -13.0886 -12.9512  -6.3433  -6.0441
    -4.9215  -4.1084  -3.3313  -2.8648  -1.3054

     occupation numbers 
     1.0000   1.0000   1.0000   1.0000   1.0000   1.0000   1.0000   1.0000
     1.0000   1.0000   1.0000   1.0000   1.0000

          k = 0.4167-0.3368 0.0000 ( 17118 PWs)   bands (ev):

   -61.8228 -36.1557 -35.9279 -35.9010 -13.2138 -13.0188  -6.5971  -5.7879
    -4.9809  -4.1457  -2.8093  -2.4788  -1.4885

     occupation numbers 
     1.0000   1.0000   1.0000   1.0000   1.0000   1.0000   1.0000   1.0000
     1.0000   1.0000   1.0000   1.0000   1.0000

          k = 0.4167-0.2406 0.0000 ( 17130 PWs)   bands (ev):

   -61.8253 -36.1451 -35.9329 -35.8813 -13.3659 -13.0837  -6.5769  -5.5884
    -4.9654  -4.0597  -2.7908  -2.0599  -1.7785

     occupation numbers 
     1.0000   1.0000   1.0000   1.0000   1.0000   1.0000   1.0000   1.0000
     1.0000   1.0000   1.0000   1.0000   1.0000

          k = 0.4167-0.1443 0.0000 ( 17101 PWs)   bands (ev):

   -61.8275 -36.1128 -35.9373 -35.8884 -13.5013 -13.1300  -6.3389  -5.4468
    -4.8598  -4.0896  -2.6084  -2.6063  -1.7290

     occupation numbers 
     1.0000   1.0000   1.0000   1.0000   1.0000   1.0000   1.0000   1.0000
     1.0000   1.0000   1.0000   1.0000   1.0000

          k = 0.4167-0.0481 0.0000 ( 17088 PWs)   bands (ev):

   -61.8287 -36.0791 -35.9398 -35.9080 -13.5801 -13.1530  -6.0806  -5.3304
    -4.7012  -4.2595  -3.2105  -2.3271  -1.7305

     occupation numbers 
     1.0000   1.0000   1.0000   1.0000   1.0000   1.0000   1.0000   1.0000
     1.0000   1.0000   1.0000   1.0000   1.0000

          k = 0.4167 0.0481 0.0000 ( 17088 PWs)   bands (ev):

   -61.8287 -36.0791 -35.9398 -35.9080 -13.5801 -13.1530  -6.0806  -5.3304
    -4.7012  -4.2595  -3.2105  -2.3271  -1.7305

     occupation numbers 
     1.0000   1.0000   1.0000   1.0000   1.0000   1.0000   1.0000   1.0000
     1.0000   1.0000   1.0000   1.0000   1.0000

          k = 0.4167 0.1443 0.0000 ( 17101 PWs)   bands (ev):

   -61.8275 -36.1128 -35.9373 -35.8884 -13.5013 -13.1300  -6.3389  -5.4468
    -4.8598  -4.0896  -2.6084  -2.6063  -1.7290

     occupation numbers 
     1.0000   1.0000   1.0000   1.0000   1.0000   1.0000   1.0000   1.0000
     1.0000   1.0000   1.0000   1.0000   1.0000

          k =-0.5000-0.2887 0.0000 ( 17122 PWs)   bands (ev):

   -61.8228 -36.1691 -35.9279 -35.8870 -13.2069 -13.0242  -6.7351  -5.7518
    -5.0386  -4.1409  -2.8514  -1.9606  -1.6128

     occupation numbers 
     1.0000   1.0000   1.0000   1.0000   1.0000   1.0000   1.0000   1.0000
     1.0000   1.0000   1.0000   1.0000   1.0000

          k =-0.5000-0.1925 0.0000 ( 17118 PWs)   bands (ev):

   -61.8228 -36.1557 -35.9279 -35.9010 -13.2138 -13.0188  -6.5971  -5.7879
    -4.9809  -4.1457  -2.8093  -2.4788  -1.4885

     occupation numbers 
     1.0000   1.0000   1.0000   1.0000   1.0000   1.0000   1.0000   1.0000
     1.0000   1.0000   1.0000   1.0000   1.0000

          k =-0.5000-0.0962 0.0000 ( 17122 PWs)   bands (ev):

   -61.8228 -36.1233 -35.9347 -35.9280 -13.2274 -13.0079  -6.2737  -5.8540
    -4.8023  -4.1785  -3.3343  -2.6909  -1.4823

     occupation numbers 
     1.0000   1.0000   1.0000   1.0000   1.0000   1.0000   1.0000   1.0000
     1.0000   1.0000   1.0000   1.0000   1.0000

          k =-0.5000 0.0000 0.0000 ( 17119 PWs)   bands (ev):

   -61.8228 -36.1016 -35.9570 -35.9280 -13.2341 -13.0025  -6.0783  -5.8845
    -4.5825  -4.2035  -3.8821  -2.6161  -1.5053

     occupation numbers 
     1.0000   1.0000   1.0000   1.0000   1.0000   1.0000   1.0000   1.0000
     1.0000   1.0000   1.0000   1.0000   1.0000

          k =-0.5000 0.0962 0.0000 ( 17122 PWs)   bands (ev):

   -61.8228 -36.1233 -35.9347 -35.9280 -13.2274 -13.0079  -6.2737  -5.8540
    -4.8023  -4.1785  -3.3343  -2.6909  -1.4823

     occupation numbers 
     1.0000   1.0000   1.0000   1.0000   1.0000   1.0000   1.0000   1.0000
     1.0000   1.0000   1.0000   1.0000   1.0000

          k =-0.5000 0.1925 0.0000 ( 17118 PWs)   bands (ev):

   -61.8228 -36.1557 -35.9279 -35.9010 -13.2138 -13.0188  -6.5971  -5.7879
    -4.9809  -4.1457  -2.8093  -2.4788  -1.4885

     occupation numbers 
     1.0000   1.0000   1.0000   1.0000   1.0000   1.0000   1.0000   1.0000
     1.0000   1.0000   1.0000   1.0000   1.0000

          k =-0.5000-0.8660 0.0000 ( 17122 PWs)   bands (ev):

   -61.8228 -36.1691 -35.9279 -35.8870 -13.2069 -13.0242  -6.7351  -5.7518
    -5.0386  -4.1409  -2.8514  -1.9606  -1.6128

     occupation numbers 
     1.0000   1.0000   1.0000   1.0000   1.0000   1.0000   1.0000   1.0000
     1.0000   1.0000   1.0000   1.0000   1.0000

     highest occupied level (ev):    -0.9860

!    total energy              =    -178.25440704 Ry
     estimated scf accuracy    <          7.3E-13 Ry

     The total energy is the sum of the following terms:
     one-electron contribution =   -1117.55312458 Ry
     hartree contribution      =     558.41853779 Ry
     xc contribution           =     -24.68768644 Ry
     ewald contribution        =     405.56786618 Ry

     convergence has been achieved in  27 iterations

     Writing output data file ./mos2.save/
 
     init_run     :      0.13s CPU      0.29s WALL (       1 calls)
     electrons    :      5.38s CPU      5.96s WALL (       1 calls)

     Called by init_run:
     wfcinit      :      0.07s CPU      0.15s WALL (       1 calls)
     wfcinit:atom :      0.00s CPU      0.00s WALL (      10 calls)
     wfcinit:wfcr :      0.06s CPU      0.13s WALL (      10 calls)
     potinit      :      0.02s CPU      0.03s WALL (       1 calls)
     hinit0       :      0.01s CPU      0.09s WALL (       1 calls)

     Called by electrons:
     c_bands      :      4.39s CPU      4.87s WALL (      28 calls)
     sum_band     :      0.68s CPU      0.71s WALL (      28 calls)
     v_of_rho     :      0.17s CPU      0.18s WALL (      28 calls)
     v_h          :      0.01s CPU      0.01s WALL (      28 calls)
     v_xc         :      0.16s CPU      0.17s WALL (      28 calls)
     mix_rho      :      0.07s CPU      0.07s WALL (      28 calls)

     Called by c_bands:
     init_us_2    :      0.10s CPU      0.11s WALL (     570 calls)
     cegterg      :      3.86s CPU      4.01s WALL (     280 calls)

     Called by sum_band:
     sum_band:wei :      0.00s CPU      0.00s WALL (      28 calls)
     sum_band:loo :      0.64s CPU      0.67s WALL (      28 calls)
     sum_band:buf :      0.01s CPU      0.01s WALL (     280 calls)
     sum_band:ini :      0.05s CPU      0.06s WALL (     280 calls)

     Called by *egterg:
     cdiaghg      :      0.31s CPU      0.38s WALL (    1262 calls)
     cegterg:over :      0.11s CPU      0.11s WALL (     992 calls)
     cegterg:upda :      0.04s CPU      0.04s WALL (     992 calls)
     cegterg:last :      0.04s CPU      0.05s WALL (     643 calls)
     h_psi        :      3.33s CPU      3.46s WALL (    1282 calls)
     g_psi        :      0.01s CPU      0.01s WALL (     992 calls)

     Called by h_psi:
     h_psi:calbec :      0.12s CPU      0.13s WALL (    1282 calls)
     vloc_psi     :      3.13s CPU      3.25s WALL (    1282 calls)
     add_vuspsi   :      0.05s CPU      0.06s WALL (    1282 calls)

     General routines
     calbec       :      0.12s CPU      0.12s WALL (    1282 calls)
     fft          :      0.08s CPU      0.15s WALL (     280 calls)
     ffts         :      0.01s CPU      0.01s WALL (      28 calls)
     fftw         :      3.36s CPU      3.49s WALL (   25038 calls)
 
     Parallel routines
     fft_scatt_xy :      0.43s CPU      0.44s WALL (   25346 calls)
     fft_scatt_yz :      1.27s CPU      1.33s WALL (   25346 calls)
 
     PWSCF        :      5.96s CPU      7.28s WALL

 
   This run was terminated on:   3:43: 7   3Nov2021            

=------------------------------------------------------------------------------=
   JOB DONE.
=------------------------------------------------------------------------------=
TACC:  Shutdown complete. Exiting. 
